 &FCI NORB= 26,NELEC= 10,MS2= 0,
  ORBSYM=1,1,1,1,1,1,2,2,2,3,3,3,4,5,5,5,5,5,5,6,6,6,7,7,7,8,
  ISYM=1,
 /
  0.8977860941313027E+00   1   1   1   1
  0.1528298667250243E+00   2   1   1   1
  0.6298136204957114E-01   2   1   2   1
  0.5902495556760495E+00   2   2   1   1
  0.3867211190661300E-01   2   2   2   1
  0.5704494756574446E+00   2   2   2   2
 -0.9440184372089541E-01   3   1   1   1
 -0.4018417088426020E-01   3   1   2   1
 -0.4339266658382681E-01   3   1   2   2
  0.3597741086821114E-01   3   1   3   1
 -0.1312581738111595E+00   3   2   1   1
 -0.3601594294037089E-01   3   2   2   1
 -0.5759163230265943E-01   3   2   2   2
  0.1973086998114861E-01   3   2   3   1
  0.4285216560856867E-01   3   2   3   2
  0.4578569600186544E+00   3   3   1   1
  0.3080431834105703E-01   3   3   2   1
  0.4053748339314082E+00   3   3   2   2
 -0.2017732283093171E-01   3   3   3   1
 -0.2726889702134735E-01   3   3   3   2
  0.3620737605723394E+00   3   3   3   3
 -0.8483576911732767E-01   4   1   1   1
 -0.2131086131374086E-01   4   1   2   1
 -0.5459905726318194E-01   4   1   2   2
  0.2102279985337039E-01   4   1   3   1
  0.1805688235684261E-01   4   1   3   2
 -0.1997649764541286E-01   4   1   3   3
  0.2058708563909206E-01   4   1   4   1
  0.6388173688430918E-01   4   2   1   1
 -0.4488726814454939E-02   4   2   2   1
  0.1018264612051443E+00   4   2   2   2
 -0.6268754462731001E-02   4   2   3   1
 -0.1876219391786134E-01   4   2   3   2
  0.2541497651234822E-01   4   2   3   3
 -0.2024665116627604E-01   4   2   4   1
  0.6020746246172153E-01   4   2   4   2
  0.5373520173146060E-01   4   3   1   1
  0.1440539804976544E-01   4   3   2   1
 -0.2240174207886855E-02   4   3   2   2
  0.4153335301433268E-02   4   3   3   1
 -0.2061342486903664E-01   4   3   3   2
  0.1050894595987539E-01   4   3   3   3
  0.3571312565103298E-02   4   3   4   1
 -0.1029659016347225E-01   4   3   4   2
  0.3208122639090887E-01   4   3   4   3
  0.4905378083653071E+00   4   4   1   1
  0.1774863158075678E-01   4   4   2   1
  0.4709113947904311E+00   4   4   2   2
 -0.1495519530444772E-01   4   4   3   1
 -0.4552092574179066E-01   4   4   3   2
  0.3684654451308343E+00   4   4   3   3
 -0.3088129293873743E-01   4   4   4   1
  0.6946716436691847E-01   4   4   4   2
  0.1144170963640490E-01   4   4   4   3
  0.4229416050094361E+00   4   4   4   4
 -0.9464234177042607E-17   5   1   1   1
 -0.1168907480177523E-17   5   1   2   1
 -0.6512025698888655E-17   5   1   2   2
  0.1718253615814160E-17   5   1   3   1
  0.1177208825772385E-17   5   1   3   2
 -0.1545013201176335E-17   5   1   3   3
 -0.4522243504192508E-17   5   1   4   1
 -0.1656403295967961E-17   5   1   4   2
 -0.1728433472612105E-17   5   1   4   3
 -0.6047501965892828E-17   5   1   4   4
  0.4161190891952987E-01   5   1   5   1
  0.1418898313870914E-16   5   2   1   1
 -0.4578000402470624E-19   5   2   2   1
  0.2017900606858297E-16   5   2   2   2
 -0.2115988381276385E-17   5   2   3   1
 -0.3589049259489676E-17   5   2   3   2
  0.5155909149254222E-17   5   2   3   3
 -0.2751850819287518E-17   5   2   4   1
  0.9709667124624760E-17   5   2   4   2
 -0.1170544538925615E-17   5   2   4   3
  0.1398995574164997E-16   5   2   4   4
 -0.8977523775720331E-02   5   2   5   1
  0.1252148014598292E-01   5   2   5   2
  0.9724094893814518E-17   5   3   1   1
  0.1965940117973216E-17   5   3   2   1
  0.1041439659846979E-17   5   3   2   2
  0.1216884677218655E-17   5   3   3   1
 -0.3819633062130841E-17   5   3   3   2
  0.2810955450323075E-17   5   3   3   3
 -0.2143556510277306E-17   5   3   4   1
 -0.5543264688692996E-18   5   3   4   2
  0.4061408051357330E-17   5   3   4   3
  0.7328674104597271E-18   5   3   4   4
  0.1674854619326676E-01   5   3   5   1
 -0.6073397451627431E-02   5   3   5   2
  0.1248356113244177E-01   5   3   5   3
 -0.1638473045710232E-16   5   4   1   1
 -0.5063368844422367E-17   5   4   2   1
  0.4317818465596064E-17   5   4   2   2
  0.1207100874847940E-18   5   4   3   1
  0.3793009050701274E-17   5   4   3   2
  0.6916518659324926E-18   5   4   3   3
 -0.7380452330670453E-18   5   4   4   1
  0.4584476509471838E-17   5   4   4   2
 -0.6545083097847539E-17   5   4   4   3
  0.4548534631535333E-18   5   4   4   4
  0.6817421408453131E-02   5   4   5   1
 -0.1811119773303034E-02   5   4   5   2
  0.7801807440565419E-02   5   4   5   3
  0.9582954673524166E-02   5   4   5   4
  0.6344921658390950E+00   5   5   1   1
  0.4733310407955834E-01   5   5   2   1
  0.4989989291143974E+00   5   5   2   2
 -0.1675964738431768E-01   5   5   3   1
 -0.7151609733376108E-01   5   5   3   2
  0.4048972133968060E+00   5   5   3   3
 -0.3698702334551451E-01   5   5   4   1
  0.5314339625495434E-01   5   5   4   2
  0.4280592859949983E-01   5   5   4   3
  0.4484760484591451E+00   5   5   4   4
  0.5207277169097662E-18   5   5   5   1
  0.8124357826766427E-17   5   5   5   2
  0.1367686394522575E-16   5   5   5   3
 -0.1003946048016453E-16   5   5   5   4
  0.5784341298783298E+00   5   5   5   5
  0.6889125830392513E-01   6   1   1   1
  0.3924258259201482E-01   6   1   2   1
  0.1676753446467150E-01   6   1   2   2
 -0.2778039085508738E-01   6   1   3   1
 -0.1506648668042984E-01   6   1   3   2
  0.1442373944719147E-01   6   1   3   3
 -0.9559150011764040E-02   6   1   4   1
 -0.6384390723707285E-02   6   1   4   2
  0.6149960421970330E-02   6   1   4   3
  0.7217789966024686E-03   6   1   4   4
  0.1279637342689218E-17   6   1   5   1
 -0.6225575074412178E-18   6   1   5   2
  0.1057062396967317E-17   6   1   5   3
 -0.2277931422364468E-19   6   1   5   4
  0.1057845809765257E-02   6   1   5   5
  0.3683024790075402E-01   6   1   6   1
  0.8791880015455245E-01   6   2   1   1
  0.3524821103995616E-01   6   2   2   1
 -0.1292789530855717E-01   6   2   2   2
 -0.1557015192585872E-01   6   2   3   1
 -0.2736244255866033E-01   6   2   3   2
  0.8236195708555487E-02   6   2   3   3
 -0.8514336941308487E-02   6   2   4   1
 -0.2211846461270921E-01   6   2   4   2
  0.1844761490297499E-01   6   2   4   3
 -0.4870723668744151E-02   6   2   4   4
 -0.1823498861825581E-18   6   2   5   1
 -0.4433720687729648E-17   6   2   5   2
  0.3068370774311852E-17   6   2   5   3
 -0.8367850407024686E-17   6   2   5   4
  0.4052190912037246E-01   6   2   5   5
  0.1187477482472771E-01   6   2   6   1
  0.5555646031261575E-01   6   2   6   2
 -0.9022983118526338E-01   6   3   1   1
 -0.2090086510653372E-01   6   3   2   1
 -0.6038666302803719E-01   6   3   2   2
  0.1859613220778736E-01   6   3   3   1
  0.1321925135240019E-01   6   3   3   2
 -0.3038745736435848E-01   6   3   3   3
  0.1496949557168568E-01   6   3   4   1
 -0.1140160391419258E-01   6   3   4   2
 -0.3714046122833825E-03   6   3   4   3
 -0.3275380992465932E-01   6   3   4   4
  0.1772057648447958E-17   6   3   5   1
 -0.2596169310359701E-17   6   3   5   2
 -0.1374062889839661E-18   6   3   5   3
  0.2667383649152254E-17   6   3   5   4
 -0.5158183619093731E-01   6   3   5   5
 -0.1212479601957192E-01   6   3   6   1
 -0.6778349448033030E-02   6   3   6   2
  0.2186267659610981E-01   6   3   6   3
 -0.7609229567847204E-02   6   4   1   1
 -0.1280582865622204E-02   6   4   2   1
 -0.3286421367502772E-01   6   4   2   2
  0.7721359561283038E-02   6   4   3   1
 -0.1948977015106165E-02   6   4   3   2
 -0.6840068152760754E-02   6   4   3   3
  0.5199163209633702E-02   6   4   4   1
 -0.1670773195479532E-01   6   4   4   2
  0.1193128022189464E-01   6   4   4   3
 -0.1380976651572031E-01   6   4   4   4
  0.3442928367706423E-17   6   4   5   1
 -0.5393557220631054E-17   6   4   5   2
  0.3602209595691300E-17   6   4   5   3
 -0.2829137041611561E-17   6   4   5   4
  0.1095837369047514E-02   6   4   5   5
 -0.6648843799572424E-02   6   4   6   1
  0.1731683371027933E-01   6   4   6   2
  0.6545452066985435E-02   6   4   6   3
  0.1717593009053004E-01   6   4   6   4
  0.3505234753152683E-17   6   5   1   1
  0.1377227275168207E-17   6   5   2   1
 -0.6676746253979458E-17   6   5   2   2
  0.7822509101644829E-18   6   5   3   1
 -0.1331077211235177E-17   6   5   3   2
 -0.1195904595957503E-17   6   5   3   3
  0.3242764220314920E-17   6   5   4   1
 -0.5532061435099857E-17   6   5   4   2
  0.4366920090475958E-17   6   5   4   3
 -0.2554313517353398E-17   6   5   4   4
 -0.1603884929941717E-01   6   5   5   1
  0.1044179648039764E-01   6   5   5   2
 -0.7881859701126823E-02   6   5   5   3
 -0.9283732636018550E-03   6   5   5   4
  0.6238476212445057E-18   6   5   5   5
 -0.1198311359649967E-17   6   5   6   1
  0.5264728714693391E-17   6   5   6   2
  0.8051741926950025E-18   6   5   6   3
  0.9993976537507052E-18   6   5   6   4
  0.1633116858328550E-01   6   5   6   5
  0.5811376710360774E+00   6   6   1   1
  0.3975152987258881E-01   6   6   2   1
  0.5284202275045385E+00   6   6   2   2
 -0.3414357873152685E-01   6   6   3   1
 -0.5308219017472772E-01   6   6   3   2
  0.3985647965545898E+00   6   6   3   3
 -0.4580559703103848E-01   6   6   4   1
  0.7670147808832306E-01   6   6   4   2
  0.1408931071848141E-01   6   6   4   3
  0.4458873171234329E+00   6   6   4   4
 -0.6346017703067067E-17   6   6   5   1
  0.1594954201583337E-16   6   6   5   2
  0.3686706638048043E-17   6   6   5   3
 -0.7997456426993562E-18   6   6   5   4
  0.5002538957991813E+00   6   6   5   5
  0.1473386365502583E-01   6   6   6   1
 -0.4430877568080416E-02   6   6   6   2
 -0.5929751763738428E-01   6   6   6   3
 -0.2270372661816211E-01   6   6   6   4
 -0.3523658562259819E-17   6   6   6   5
  0.5191403017706027E+00   6   6   6   6
  0.6851119013718504E+00   7   7   1   1
  0.6764150123621411E-01   7   7   2   1
  0.5246008236204888E+00   7   7   2   2
 -0.3607412124251758E-01   7   7   3   1
 -0.8534019013819706E-01   7   7   3   2
  0.4126709197702439E+00   7   7   3   3
 -0.5222122606662405E-01   7   7   4   1
  0.6581751096512278E-01   7   7   4   2
  0.3915019061793623E-01   7   7   4   3
  0.4623160799287157E+00   7   7   4   4
  0.3182781615283079E-01   7   7   5   1
 -0.9222124868093338E-02   7   7   5   2
  0.1325381735207016E-01   7   7   5   3
  0.4716067983088507E-02   7   7   5   4
  0.5695019770336134E+00   7   7   5   5
  0.1254631034148057E-01   7   7   6   1
  0.4476169817879255E-01   7   7   6   2
 -0.5747832979189849E-01   7   7   6   3
 -0.9931834121095218E-03   7   7   6   4
 -0.1383381737107957E-01   7   7   6   5
  0.5162287435694640E+00   7   7   6   6
  0.6187588895776650E+00   7   7   7   7
 -0.1776301314776448E+00   8   7   1   1
 -0.4150647513860736E-01   8   7   2   1
 -0.1004376930115314E+00   8   7   2   2
  0.3229073986256013E-01   8   7   3   1
  0.3712639718219397E-01   8   7   3   2
 -0.4585250253615739E-01   8   7   3   3
  0.3454379953965236E-01   8   7   4   1
 -0.3456017710847736E-01   8   7   4   2
 -0.4928470792231743E-03   8   7   4   3
 -0.6379491530583821E-01   8   7   4   4
 -0.6133842031650348E-02   8   7   5   1
 -0.1725183861848090E-02   8   7   5   2
  0.2160044164115103E-02   8   7   5   3
  0.5767975207757319E-02   8   7   5   4
 -0.9400965305009021E-01   8   7   5   5
 -0.1229863634259240E-01   8   7   6   1
 -0.2106549403039155E-01   8   7   6   2
  0.2628306499005550E-01   8   7   6   3
  0.5098257737422257E-02   8   7   6   4
  0.2393781535039463E-02   8   7   6   5
 -0.8896700365551172E-01   8   7   6   6
 -0.1246581028554725E+00   8   7   7   7
  0.7732658377893907E-01   8   7   8   7
  0.5207233916040668E+00   8   8   1   1
  0.4149144940443985E-01   8   8   2   1
  0.4268641114899780E+00   8   8   2   2
 -0.2288494787073181E-01   8   8   3   1
 -0.5577498839830246E-01   8   8   3   2
  0.3591049897760661E+00   8   8   3   3
 -0.3037529040129339E-01   8   8   4   1
  0.3850555418967760E-01   8   8   4   2
  0.2986085573269837E-01   8   8   4   3
  0.3942248378846124E+00   8   8   4   4
  0.1745160022817153E-01   8   8   5   1
 -0.6891570531258947E-02   8   8   5   2
  0.8871265563176261E-02   8   8   5   3
  0.5976638938857290E-02   8   8   5   4
  0.4474232107647129E+00   8   8   5   5
  0.1030549166858652E-01   8   8   6   1
  0.2520736208578270E-01   8   8   6   2
 -0.3223141315410011E-01   8   8   6   3
  0.2817885383265661E-02   8   8   6   4
 -0.6618217458682124E-02   8   8   6   5
  0.4195274595627280E+00   8   8   6   6
  0.4820407258958568E+00   8   8   7   7
 -0.6678099503638452E-01   8   8   8   7
  0.4174215901248740E+00   8   8   8   8
  0.7788339904072734E-01   9   7   1   1
  0.3678353312328278E-01   9   7   2   1
 -0.2441882081088446E-01   9   7   2   2
 -0.6747081493751993E-02   9   7   3   1
 -0.1655226361593247E-01   9   7   3   2
  0.1189113483902625E-01   9   7   3   3
  0.2250832554567497E-02   9   7   4   1
 -0.2663782135328860E-01   9   7   4   2
  0.2589436244637729E-01   9   7   4   3
 -0.1081146599332578E-01   9   7   4   4
  0.1096548123147130E-01   9   7   5   1
  0.6006135651936528E-02   9   7   5   2
  0.4711575208003611E-02   9   7   5   3
  0.5104637466393795E-02   9   7   5   4
  0.3273863716784079E-01   9   7   5   5
  0.2119359427707615E-01   9   7   6   1
  0.2721585743785126E-01   9   7   6   2
 -0.2874949884772129E-02   9   7   6   3
  0.8632627153589527E-02   9   7   6   4
  0.2555913881270159E-02   9   7   6   5
 -0.3409137585642427E-02   9   7   6   6
  0.3836092878172435E-01   9   7   7   7
 -0.9995214361583901E-02   9   7   8   7
  0.1902504816450797E-01   9   7   8   8
  0.6562070071946784E-01   9   7   9   7
 -0.3180396024239735E-01   9   8   1   1
 -0.1487968702414760E-01   9   8   2   1
 -0.1978137645478918E-02   9   8   2   2
  0.8846085458730198E-02   9   8   3   1
 -0.5342541271495874E-04   9   8   3   2
 -0.6677807367286437E-02   9   8   3   3
  0.1877839058927213E-02   9   8   4   1
  0.1155178621815416E-01   9   8   4   2
 -0.1250183821522182E-02   9   8   4   3
  0.5340399432550022E-02   9   8   4   4
 -0.2972128385716358E-02   9   8   5   1
 -0.1509276716446609E-02   9   8   5   2
  0.1245831279933506E-02   9   8   5   3
 -0.2900783864696368E-03   9   8   5   4
 -0.1055956487965649E-01   9   8   5   5
 -0.1124964055887955E-01   9   8   6   1
 -0.7698036403868715E-02   9   8   6   2
  0.7044051218492151E-02   9   8   6   3
  0.2319227647903790E-02   9   8   6   4
 -0.7738031756666787E-03   9   8   6   5
 -0.6262058627327141E-02   9   8   6   6
 -0.1009886374597931E-01   9   8   7   7
  0.5082191639973106E-02   9   8   8   7
 -0.1306025297408613E-02   9   8   8   8
 -0.1739847609296316E-01   9   8   9   7
  0.1480413735183740E-01   9   8   9   8
  0.6317141560312211E+00   9   9   1   1
  0.4587763921313557E-01   9   9   2   1
  0.5471586674195953E+00   9   9   2   2
 -0.3093903562467071E-01   9   9   3   1
 -0.6443991163572482E-01   9   9   3   2
  0.4096090581582496E+00   9   9   3   3
 -0.4833948724498516E-01   9   9   4   1
  0.8073256676191776E-01   9   9   4   2
  0.2113729009728449E-01   9   9   4   3
  0.4658142824250417E+00   9   9   4   4
  0.2658439403586133E-01   9   9   5   1
 -0.1107621069617619E-01   9   9   5   2
  0.9863906320138503E-02   9   9   5   3
  0.2767519438311471E-02   9   9   5   4
  0.5452606142600115E+00   9   9   5   5
  0.1326298247064683E-01   9   9   6   1
  0.1397870860246636E-01   9   9   6   2
 -0.5814761451941886E-01   9   9   6   3
 -0.1572920412899337E-01   9   9   6   4
 -0.9357958020300159E-02   9   9   6   5
  0.5222654704070219E+00   9   9   6   6
  0.5820476632545756E+00   9   9   7   7
 -0.1064864067162872E+00   9   9   8   7
  0.4552411322576534E+00   9   9   8   8
  0.1114777992738222E-01   9   9   9   7
 -0.1191782692320136E-01   9   9   9   8
  0.5951035657622994E+00   9   9   9   9
  0.6851119013718505E+00  10  10   1   1
  0.6764150123621400E-01  10  10   2   1
  0.5246008236204889E+00  10  10   2   2
 -0.3607412124251747E-01  10  10   3   1
 -0.8534019013819691E-01  10  10   3   2
  0.4126709197702439E+00  10  10   3   3
 -0.5222122606662438E-01  10  10   4   1
  0.6581751096512345E-01  10  10   4   2
  0.3915019061793590E-01  10  10   4   3
  0.4623160799287200E+00  10  10   4   4
 -0.3182781615283079E-01  10  10   5   1
  0.9222124868093364E-02  10  10   5   2
 -0.1325381735207014E-01  10  10   5   3
 -0.4716067983088499E-02  10  10   5   4
  0.5695019770336134E+00  10  10   5   5
  0.1254631034148046E-01  10  10   6   1
  0.4476169817879283E-01  10  10   6   2
 -0.5747832979189832E-01  10  10   6   3
 -0.9931834121073013E-03  10  10   6   4
  0.1383381737107959E-01  10  10   6   5
  0.5162287435694667E+00  10  10   6   6
  0.5668207015214084E+00  10  10   7   7
 -0.1148719237585344E+00  10  10   8   7
  0.4498059298807298E+00  10  10   8   8
  0.2673601161436873E-01  10  10   9   7
 -0.8437049777887826E-02  10  10   9   8
  0.5395257213489933E+00  10  10   9   9
  0.6187588895776651E+00  10  10  10  10
 -0.1776301314776446E+00  11  10   1   1
 -0.4150647513860744E-01  11  10   2   1
 -0.1004376930115315E+00  11  10   2   2
  0.3229073986256056E-01  11  10   3   1
  0.3712639718219442E-01  11  10   3   2
 -0.4585250253615818E-01  11  10   3   3
  0.3454379953965264E-01  11  10   4   1
 -0.3456017710847750E-01  11  10   4   2
 -0.4928470792227857E-03  11  10   4   3
 -0.6379491530583679E-01  11  10   4   4
  0.6133842031650324E-02  11  10   5   1
  0.1725183861848073E-02  11  10   5   2
 -0.2160044164115133E-02  11  10   5   3
 -0.5767975207757359E-02  11  10   5   4
 -0.9400965305008999E-01  11  10   5   5
 -0.1229863634259165E-01  11  10   6   1
 -0.2106549403039094E-01  11  10   6   2
  0.2628306499005464E-01  11  10   6   3
  0.5098257737423006E-02  11  10   6   4
 -0.2393781535039492E-02  11  10   6   5
 -0.8896700365551222E-01  11  10   6   6
 -0.1148719237585339E+00  11  10   7   7
  0.6093054383231281E-01  11  10   8   7
 -0.6930394382659895E-01  11  10   8   8
 -0.8532217397649804E-02  11  10   9   7
  0.3182074250076449E-02  11  10   9   8
 -0.9973897027584032E-01  11  10   9   9
 -0.1246581028554722E+00  11  10  10  10
  0.7732658377893883E-01  11  10  11  10
  0.5207233916040660E+00  11  11   1   1
  0.4149144940443963E-01  11  11   2   1
  0.4268641114899777E+00  11  11   2   2
 -0.2288494787073153E-01  11  11   3   1
 -0.5577498839830237E-01  11  11   3   2
  0.3591049897760659E+00  11  11   3   3
 -0.3037529040129283E-01  11  11   4   1
  0.3850555418967760E-01  11  11   4   2
  0.2986085573269770E-01  11  11   4   3
  0.3942248378846114E+00  11  11   4   4
 -0.1745160022817149E-01  11  11   5   1
  0.6891570531258965E-02  11  11   5   2
 -0.8871265563176262E-02  11  11   5   3
 -0.5976638938857349E-02  11  11   5   4
  0.4474232107647125E+00  11  11   5   5
  0.1030549166858663E-01  11  11   6   1
  0.2520736208578264E-01  11  11   6   2
 -0.3223141315410005E-01  11  11   6   3
  0.2817885383264329E-02  11  11   6   4
  0.6618217458682081E-02  11  11   6   5
  0.4195274595627286E+00  11  11   6   6
  0.4498059298807293E+00  11  11   7   7
 -0.6930394382659899E-01  11  11   8   7
  0.3830082774688602E+00  11  11   8   8
  0.1368282997807713E-01  11  11   9   7
 -0.2940911197039153E-02  11  11   9   8
  0.4311466206697730E+00  11  11   9   9
  0.4820407258958565E+00  11  11  10  10
 -0.6678099503638435E-01  11  11  11  10
  0.4174215901248742E+00  11  11  11  11
  0.7788339904072795E-01  12  10   1   1
  0.3678353312328297E-01  12  10   2   1
 -0.2441882081088430E-01  12  10   2   2
 -0.6747081493752118E-02  12  10   3   1
 -0.1655226361593252E-01  12  10   3   2
  0.1189113483902621E-01  12  10   3   3
  0.2250832554567032E-02  12  10   4   1
 -0.2663782135328885E-01  12  10   4   2
  0.2589436244637776E-01  12  10   4   3
 -0.1081146599332313E-01  12  10   4   4
 -0.1096548123147131E-01  12  10   5   1
 -0.6006135651936535E-02  12  10   5   2
 -0.4711575208003617E-02  12  10   5   3
 -0.5104637466393804E-02  12  10   5   4
  0.3273863716784119E-01  12  10   5   5
  0.2119359427707604E-01  12  10   6   1
  0.2721585743785120E-01  12  10   6   2
 -0.2874949884772226E-02  12  10   6   3
  0.8632627153591088E-02  12  10   6   4
 -0.2555913881270158E-02  12  10   6   5
 -0.3409137585641353E-02  12  10   6   6
  0.2673601161436912E-01  12  10   7   7
 -0.8532217397649941E-02  12  10   8   7
  0.1368282997807725E-01  12  10   8   8
  0.4284466015616508E-01  12  10   9   7
 -0.1213293323046083E-01  12  10   9   8
  0.5859883701037288E-02  12  10   9   9
  0.3836092878172473E-01  12  10  10  10
 -0.9995214361583999E-02  12  10  11  10
  0.1902504816450823E-01  12  10  11  11
  0.6562070071946788E-01  12  10  12  10
 -0.3180396024239713E-01  12  11   1   1
 -0.1487968702414762E-01  12  11   2   1
 -0.1978137645479001E-02  12  11   2   2
  0.8846085458729926E-02  12  11   3   1
 -0.5342541271496568E-04  12  11   3   2
 -0.6677807367285768E-02  12  11   3   3
  0.1877839058926609E-02  12  11   4   1
  0.1155178621815419E-01  12  11   4   2
 -0.1250183821521079E-02  12  11   4   3
  0.5340399432551036E-02  12  11   4   4
  0.2972128385716344E-02  12  11   5   1
  0.1509276716446599E-02  12  11   5   2
 -0.1245831279933528E-02  12  11   5   3
  0.2900783864695830E-03  12  11   5   4
 -0.1055956487965636E-01  12  11   5   5
 -0.1124964055888016E-01  12  11   6   1
 -0.7698036403868826E-02  12  11   6   2
  0.7044051218493354E-02  12  11   6   3
  0.2319227647905174E-02  12  11   6   4
  0.7738031756666381E-03  12  11   6   5
 -0.6262058627324790E-02  12  11   6   6
 -0.8437049777887935E-02  12  11   7   7
  0.3182074250076637E-02  12  11   8   7
 -0.2940911197039417E-02  12  11   8   8
 -0.1213293323046062E-01  12  11   9   7
  0.9151101746759156E-02  12  11   9   8
 -0.8232231107362750E-02  12  11   9   9
 -0.1009886374597921E-01  12  11  10  10
  0.5082191639973062E-02  12  11  11  10
 -0.1306025297408592E-02  12  11  11  11
 -0.1739847609296322E-01  12  11  12  10
  0.1480413735183743E-01  12  11  12  11
  0.6317141560312215E+00  12  12   1   1
  0.4587763921313569E-01  12  12   2   1
  0.5471586674195952E+00  12  12   2   2
 -0.3093903562467093E-01  12  12   3   1
 -0.6443991163572496E-01  12  12   3   2
  0.4096090581582503E+00  12  12   3   3
 -0.4833948724498616E-01  12  12   4   1
  0.8073256676191753E-01  12  12   4   2
  0.2113729009728582E-01  12  12   4   3
  0.4658142824250450E+00  12  12   4   4
 -0.2658439403586136E-01  12  12   5   1
  0.1107621069617620E-01  12  12   5   2
 -0.9863906320138484E-02  12  12   5   3
 -0.2767519438311529E-02  12  12   5   4
  0.5452606142600115E+00  12  12   5   5
  0.1326298247064606E-01  12  12   6   1
  0.1397870860246642E-01  12  12   6   2
 -0.5814761451941747E-01  12  12   6   3
 -0.1572920412899015E-01  12  12   6   4
  0.9357958020300117E-02  12  12   6   5
  0.5222654704070242E+00  12  12   6   6
  0.5395257213489933E+00  12  12   7   7
 -0.9973897027584050E-01  12  12   8   7
  0.4311466206697728E+00  12  12   8   8
  0.5859883701037211E-02  12  12   9   7
 -0.8232231107363042E-02  12  12   9   8
  0.5446535285128640E+00  12  12   9   9
  0.5820476632545760E+00  12  12  10  10
 -0.1064864067162870E+00  12  12  11  10
  0.4552411322576533E+00  12  12  11  11
  0.1114777992738261E-01  12  12  12  10
 -0.1191782692320104E-01  12  12  12  11
  0.5951035657622998E+00  12  12  12  12
  0.6344921658390940E+00  13  13   1   1
  0.4733310407955832E-01  13  13   2   1
  0.4989989291143967E+00  13  13   2   2
 -0.1675964738431773E-01  13  13   3   1
 -0.7151609733376089E-01  13  13   3   2
  0.4048972133968055E+00  13  13   3   3
 -0.3698702334551451E-01  13  13   4   1
  0.5314339625495412E-01  13  13   4   2
  0.4280592859950016E-01  13  13   4   3
  0.4484760484591448E+00  13  13   4   4
 -0.3703172555320781E-17  13  13   5   1
  0.9670445486341732E-17  13  13   5   2
  0.9754644398714108E-17  13  13   5   3
 -0.9669188059071156E-17  13  13   5   4
  0.5536261117315490E+00  13  13   5   5
  0.1057845809765534E-02  13  13   6   1
  0.4052190912037240E-01  13  13   6   2
 -0.5158183619093809E-01  13  13   6   3
  0.1095837369047836E-02  13  13   6   4
  0.1667876744606172E-17  13  13   6   5
  0.5002538957991796E+00  13  13   6   6
  0.5695019770336125E+00  13  13   7   7
 -0.9400965305009001E-01  13  13   8   7
  0.4474232107647119E+00  13  13   8   8
  0.3273863716784089E-01  13  13   9   7
 -0.1055956487965658E-01  13  13   9   8
  0.5452606142600108E+00  13  13   9   9
  0.5695019770336127E+00  13  13  10  10
 -0.9400965305008985E-01  13  13  11  10
  0.4474232107647114E+00  13  13  11  11
  0.3273863716784109E-01  13  13  12  10
 -0.1055956487965655E-01  13  13  12  11
  0.5452606142600110E+00  13  13  12  12
  0.5784341298783281E+00  13  13  13  13
  0.5365591096530860E+00  14  14   1   1
  0.1137172573012304E-01  14  14   2   1
  0.5502863466298479E+00  14  14   2   2
 -0.2302012221792271E-01  14  14   3   1
 -0.4461357957707944E-01  14  14   3   2
  0.3927184395757252E+00  14  14   3   3
 -0.4628690862751861E-01  14  14   4   1
  0.1009706922731535E+00  14  14   4   2
 -0.4185455867205756E-02  14  14   4   3
  0.4645510408738199E+00  14  14   4   4
 -0.6818776233085988E-17  14  14   5   1
  0.1981962743066918E-16  14  14   5   2
  0.8299877556393328E-18  14  14   5   3
  0.4171327131819230E-17  14  14   5   4
  0.4927496224590637E+00  14  14   5   5
 -0.5295265307624697E-02  14  14   6   1
 -0.2029893875915595E-01  14  14   6   2
 -0.5128296547373495E-01  14  14   6   3
 -0.2713859692354315E-01  14  14   6   4
 -0.5596071214524506E-17  14  14   6   5
  0.5125779334050348E+00  14  14   6   6
  0.5086308005948217E+00  14  14   7   7
 -0.8694357378343343E-01  14  14   8   7
  0.4156610168145078E+00  14  14   8   8
 -0.3596038734599788E-01  14  14   9   7
  0.4232666616386674E-02  14  14   9   8
  0.5333111155090349E+00  14  14   9   9
  0.5086308005948217E+00  14  14  10  10
 -0.8694357378343331E-01  14  14  11  10
  0.4156610168145076E+00  14  14  11  11
 -0.3596038734599760E-01  14  14  12  10
  0.4232666616386715E-02  14  14  12  11
  0.5333111155090349E+00  14  14  12  12
  0.4927496224590631E+00  14  14  13  13
  0.5456881559202688E+00  14  14  14  14
 -0.1019036955237867E+00  15  14   1   1
 -0.1283727288399450E-01  15  14   2   1
 -0.6737900713362777E-01  15  14   2   2
  0.5783507385245253E-02  15  14   3   1
  0.3291220849069544E-01  15  14   3   2
 -0.2393187350245169E-01  15  14   3   3
  0.1582370400935071E-01  15  14   4   1
 -0.3022622738217290E-01  15  14   4   2
 -0.1490663578443889E-01  15  14   4   3
 -0.5506635491381431E-01  15  14   4   4
  0.1847738460682518E-17  15  14   5   1
 -0.5474708312100189E-17  15  14   5   2
 -0.3134656783610228E-17  15  14   5   3
  0.2941110594927216E-17  15  14   5   4
 -0.7779889734312373E-01  15  14   5   5
  0.2319382209382659E-02  15  14   6   1
 -0.1317206027492449E-01  15  14   6   2
  0.1062959484417519E-01  15  14   6   3
 -0.7699317771735631E-03  15  14   6   4
 -0.6440811765310772E-18  15  14   6   5
 -0.6109290461335926E-01  15  14   6   6
 -0.8558702177210074E-01  15  14   7   7
  0.3286494105320596E-01  15  14   8   7
 -0.5367217022864765E-01  15  14   8   8
 -0.1047157008270235E-02  15  14   9   7
 -0.4930283426112094E-02  15  14   9   8
 -0.7453207146964444E-01  15  14   9   9
 -0.8558702177210079E-01  15  14  10  10
  0.3286494105320591E-01  15  14  11  10
 -0.5367217022864756E-01  15  14  11  11
 -0.1047157008270318E-02  15  14  12  10
 -0.4930283426112111E-02  15  14  12  11
 -0.7453207146964443E-01  15  14  12  12
 -0.7779889734312344E-01  15  14  13  13
 -0.6617516586746841E-01  15  14  14  14
  0.3575301944010043E-01  15  14  15  14
  0.3462525290294792E+00  15  15   1   1
  0.2770674368890169E-02  15  15   2   1
  0.3625238310961858E+00  15  15   2   2
 -0.1296193548303226E-01  15  15   3   1
  0.7611465892017777E-02  15  15   3   2
  0.3308752812705115E+00  15  15   3   3
 -0.1520240778409987E-01  15  15   4   1
  0.2237497833029889E-01  15  15   4   2
 -0.2402927143438294E-01  15  15   4   3
  0.3260399738172053E+00  15  15   4   4
 -0.1831050736530393E-17  15  15   5   1
  0.4402651613630117E-17  15  15   5   2
 -0.3751556608102116E-17  15  15   5   3
  0.5573818935483102E-17  15  15   5   4
  0.3302292309557546E+00  15  15   5   5
 -0.6796475271647062E-03  15  15   6   1
 -0.1169706539201631E-01  15  15   6   2
 -0.2063029205979405E-01  15  15   6   3
 -0.1479879805641915E-01  15  15   6   4
 -0.3752457623020800E-17  15  15   6   5
  0.3484959376538503E+00  15  15   6   6
  0.3345101621317190E+00  15  15   7   7
 -0.3008258058297339E-01  15  15   8   7
  0.3005997261042698E+00  15  15   8   8
 -0.1425557642292069E-01  15  15   9   7
 -0.4855646429395857E-02  15  15   9   8
  0.3489995542044758E+00  15  15   9   9
  0.3345101621317190E+00  15  15  10  10
 -0.3008258058297331E-01  15  15  11  10
  0.3005997261042696E+00  15  15  11  11
 -0.1425557642292051E-01  15  15  12  10
 -0.4855646429395899E-02  15  15  12  11
  0.3489995542044758E+00  15  15  12  12
  0.3302292309557729E+00  15  15  13  13
  0.3596753425754469E+00  15  15  14  14
  0.1920469342699072E-02  15  15  15  14
  0.3493049354249124E+00  15  15  15  15
 -0.3131532066852715E-01  16  14   1   1
  0.5711413223403700E-02  16  14   2   1
 -0.9254561177918347E-01  16  14   2   2
  0.9895951012143111E-02  16  14   3   1
  0.6839564981034415E-02  16  14   3   2
 -0.2096576316268290E-01  16  14   3   3
  0.1739657273695323E-01  16  14   4   1
 -0.5734669183236600E-01  16  14   4   2
  0.1936952940093646E-01  16  14   4   3
 -0.5582050856534644E-01  16  14   4   4
  0.6292270601851283E-17  16  14   5   1
 -0.1421788417572534E-16  16  14   5   2
  0.5031039137625091E-17  16  14   5   3
 -0.7494309179458425E-17  16  14   5   4
 -0.1836521179064301E-01  16  14   5   5
 -0.1929005640274317E-02  16  14   6   1
  0.3721189142560249E-01  16  14   6   2
  0.1017604926069067E-01  16  14   6   3
  0.2376564410267311E-01  16  14   6   4
  0.3001521235304746E-17  16  14   6   5
 -0.6494007663350142E-01  16  14   6   6
 -0.3250670226605805E-01  16  14   7   7
  0.2471086528388909E-01  16  14   8   7
 -0.1906791056965564E-01  16  14   8   8
  0.3000041291855960E-01  16  14   9   7
 -0.9880332550062479E-02  16  14   9   8