 &FCI NORB= 23,NELEC=  7,MS2= 1,
  ORBSYM=1,1,1,1,1,1,1,1,1,1,1,1,1,1,1,1,1,1,1,1,1,1,1,
  ISYM=1,
 /
  0.7845840706813719E+00   1   1   1   1
  0.1330032247908944E-15   2   1   1   1
  0.1623484881888727E+00   2   1   2   1
  0.7240528949299238E+00   2   2   1   1
 -0.5464378949326942E-16   2   2   2   1
  0.7206957658326673E+00   2   2   2   2
  0.2921143444041908E-01   3   1   1   1
 -0.6266688556966216E-16   3   1   2   1
  0.1242683457173339E-01   3   1   2   2
  0.1323095060055703E+00   3   1   3   1
  0.5392281559914192E-16   3   2   1   1
  0.9759999366673443E-02   3   2   2   1
 -0.2251999467823978E-16   3   2   2   2
 -0.1380562060070839E-15   3   2   3   1
  0.4181990658642403E-01   3   2   3   2
  0.7177217591667702E+00   3   3   1   1
 -0.1162264728904461E-15   3   3   2   1
  0.6579939496082585E+00   3   3   2   2
 -0.7070990025867112E-01   3   3   3   1
  0.1595945597898663E-15   3   3   3   2
  0.7876831979423747E+00   3   3   3   3
  0.5424118143212063E-16   4   1   1   1
  0.4583210852465836E-16   4   1   2   1
  0.1544101390135731E-15   4   1   2   2
  0.5892010748877976E-16   4   1   3   1
  0.1402786404929843E-15   4   1   3   2
  0.1129938916826049E-15   4   1   3   3
  0.1383611463006763E+00   4   1   4   1
 -0.1563200268098506E-15   4   2   1   1
  0.4167295871321778E-16   4   2   2   1
 -0.1355700419564985E-15   4   2   2   2
  0.1881129180585744E-15   4   2   3   1
 -0.1093711661926863E-16   4   2   3   2
 -0.2636562118311924E-15   4   2   3   3
  0.1364722543957184E-15   4   2   4   1
  0.3430664829160533E-01   4   2   4   2
  0.2007775503554946E-15   4   3   1   1
  0.1763376187943072E-15   4   3   2   1
  0.1187089095604126E-15   4   3   2   2
  0.2030807873599916E-16   4   3   3   1
 -0.2694060643925248E-16   4   3   3   2
  0.1470666948461207E-15   4   3   3   3
 -0.3280226195165274E-01   4   3   4   1
  0.1289353552310496E-16   4   3   4   2
  0.4758773169358688E-01   4   3   4   3
  0.7634335172382197E+00   4   4   1   1
  0.1925543058334256E-15   4   4   2   1
  0.6851732846174249E+00   4   4   2   2
 -0.3456010424404831E-01   4   4   3   1
  0.1353084311261910E-15   4   4   3   2
  0.7249584875944519E+00   4   4   3   3
  0.3939506400737160E-15   4   4   4   1
 -0.3331580312990244E-15   4   4   4   2
  0.1381586904477871E-15   4   4   4   3
  0.8420741270420715E+00   4   4   4   4
 -0.1122472460346646E+00   5   1   1   1
  0.9653736143810931E-15   5   1   2   1
 -0.8426906731266207E-01   5   1   2   2
 -0.1658664929596585E-01   5   1   3   1
 -0.4371503159461554E-15   5   1   3   2
 -0.8447585852143771E-01   5   1   3   3
  0.1332095506914092E-15   5   1   4   1
  0.7636757989124576E-16   5   1   4   2
 -0.1215955634964895E-15   5   1   4   3
 -0.1112105302333695E+00   5   1   4   4
  0.3937060531556106E-01   5   1   5   1
  0.3924391123524364E-14   5   2   1   1
  0.1629843285181405E-02   5   2   2   1
  0.3692795326856462E-14   5   2   2   2
 -0.8419914071522427E-15   5   2   3   1
  0.5440879083190034E-02   5   2   3   2
  0.3945257828251193E-14   5   2   3   3
  0.6713372523656355E-16   5   2   4   1
  0.1225295093953877E-16   5   2   4   2
  0.2593982943993157E-16   5   2   4   3
  0.4228914979101491E-14   5   2   4   4
 -0.1538049201887937E-14   5   2   5   1
  0.2051758877711295E-01   5   2   5   2
 -0.5831160911666843E-01   5   3   1   1
 -0.9348533232256262E-15   5   3   2   1
 -0.3975930780030647E-01   5   3   2   2
  0.6668572721941473E-03   5   3   3   1
  0.2199846207973088E-15   5   3   3   2
 -0.5920424065449421E-01   5   3   3   3
 -0.1106298638789253E-15   5   3   4   1
  0.6334771296409820E-16   5   3   4   2
  0.2455681606701744E-16   5   3   4   3
 -0.5704342034453860E-01   5   3   4   4
  0.2254414690244964E-01   5   3   5   1
 -0.9224392083506672E-15   5   3   5   2
  0.2066266909926972E-01   5   3   5   3
  0.4590257725670711E-15   5   4   1   1
  0.8501548532525746E-16   5   4   2   1
  0.3545558299240952E-15   5   4   2   2
 -0.1369167126747425E-15   5   4   3   1
  0.2546818967592800E-16   5   4   3   2
  0.4567040757578297E-15   5   4   3   3
 -0.2965992528997497E-01   5   4   4   1
  0.3611324970618709E-15   5   4   4   2
  0.6460934031461939E-03   5   4   4   3
  0.5145236325808788E-15   5   4   4   4
 -0.1491111001871242E-15   5   4   5   1
  0.3937500535614312E-16   5   4   5   2
 -0.6169530922149125E-16   5   4   5   3
  0.1329276112065131E-01   5   4   5   4
  0.3902348443046930E+00   5   5   1   1
 -0.3831136796694778E-14   5   5   2   1
  0.3805093098583297E+00   5   5   2   2
  0.3616288170351679E-01   5   5   3   1
 -0.9853229343548264E-15   5   5   3   2
  0.3591654229381819E+00   5   5   3   3
 -0.7421342524779950E-16   5   5   4   1
  0.4307930094028629E-16   5   5   4   2
  0.3465506682162193E-16   5   5   4   3
  0.3699388219281946E+00   5   5   4   4
 -0.1885255613629751E-01   5   5   5   1
 -0.1582067810090848E-14   5   5   5   2
 -0.5066335806550026E-03   5   5   5   3
  0.7682119145088308E-16   5   5   5   4
  0.3223787672913356E+00   5   5   5   5
 -0.4709366929846080E-14   6   1   1   1
 -0.3445479530721320E-01   6   1   2   1
 -0.3345030997221732E-14   6   1   2   2
 -0.7089801293790055E-15   6   1   3   1
  0.1351525997348345E-01   6   1   3   2
 -0.3595749568862302E-14   6   1   3   3
 -0.1499194405228586E-15   6   1   4   1
 -0.4522491031769505E-16   6   1   4   2
  0.2819436159151441E-16   6   1   4   3
 -0.4830012983776218E-14   6   1   4   4
  0.1344492009044962E-14   6   1   5   1
  0.1296100298986191E-01   6   1   5   2
  0.1096507867143215E-14   6   1   5   3
  0.6391722000343535E-16   6   1   5   4
 -0.1279856729435556E-14   6   1   5   5
  0.1987765815648719E-01   6   1   6   1
 -0.1203711809189762E+00   6   2   1   1
  0.3765434145042157E-15   6   2   2   1
 -0.1103305491880508E+00   6   2   2   2
  0.3096040340859090E-01   6   2   3   1
  0.1600282406588605E-15   6   2   3   2
 -0.1212148055645931E+00   6   2   3   3
 -0.9116576950277259E-16   6   2   4   1
  0.1178765586633957E-15   6   2   4   2
 -0.4483197804387346E-16   6   2   4   3
 -0.1313632181670863E+00   6   2   4   4
  0.3545167178184426E-01   6   2   5   1
 -0.8573870780015369E-15   6   2   5   2
  0.2359650001475213E-01   6   2   5   3
 -0.1485415684245588E-15   6   2   5   4
 -0.7515720040565809E-02   6   2   5   5
  0.1968911145233676E-14   6   2   6   1
  0.5817442977433512E-01   6   2   6   2
 -0.2314622969260865E-14   6   3   1   1
  0.3315479452489740E-01   6   3   2   1
 -0.1639431015565643E-14   6   3   2   2
 -0.1238768744700469E-15   6   3   3   1
 -0.7711511968816137E-02   6   3   3   2
 -0.2227806605214102E-14   6   3   3   3
  0.6745792549902890E-16   6   3   4   1
 -0.2640201731860775E-17   6   3   4   2
 -0.7834723354463337E-17   6   3   4   3
 -0.2157347305805875E-14   6   3   4   4
  0.1079865363795562E-14   6   3   5   1
  0.9231104957247362E-02   6   3   5   2
  0.4072263359855555E-15   6   3   5   3
  0.3556622305614750E-16   6   3   5   4
 -0.1604797409667301E-14   6   3   5   5
 -0.4513364658498978E-02   6   3   6   1
  0.1467576060676379E-14   6   3   6   2
  0.1669795010470865E-01   6   3   6   3
 -0.4684586609996240E-15   6   4   1   1
 -0.1241494500033927E-15   6   4   2   1
 -0.3281441018181435E-15   6   4   2   2
  0.6927014004910351E-16   6   4   3   1
 -0.1742448901280648E-16   6   4   3   2
 -0.4308717905981718E-15   6   4   3   3
 -0.9707906018370212E-15   6   4   4   1
 -0.1241232663140340E-01   6   4   4   2
  0.1651989532853743E-16   6   4   4   3
 -0.5905897039582625E-15   6   4   4   4
  0.1461162191534676E-15   6   4   5   1
 -0.4562791097689204E-16   6   4   5   2
  0.9004159583108052E-16   6   4   5   3
  0.4190945910655683E-15   6   4   5   4
 -0.4019006738601553E-16   6   4   5   5
  0.1214690382282985E-16   6   4   6   1
  0.1863891820976304E-15   6   4   6   2
 -0.4003142303857772E-16   6   4   6   3
  0.6805614403141618E-02   6   4   6   4
  0.2915287425405593E-14   6   5   1   1
  0.5606664283377490E-01   6   5   2   1
  0.2164278842382532E-14   6   5   2   2
  0.9270877251651988E-15   6   5   3   1
  0.1603907190460513E-01   6   5   3   2
  0.2004896370142208E-14   6   5   3   3
  0.1732556299370360E-15   6   5   4   1
 -0.3785687011962460E-16   6   5   4   2
  0.6954331332991463E-16   6   5   4   3
  0.2565512683034478E-14   6   5   4   4
 -0.7398595625041082E-15   6   5   5   1
  0.2655693850010528E-01   6   5   5   2
 -0.9115971866258121E-15   6   5   5   3
  0.9141647266556451E-16   6   5   5   4
 -0.5116928057383728E-14   6   5   5   5
  0.5473708765638491E-02   6   5   6   1
  0.1030425744730223E-14   6   5   6   2
  0.2236795599554128E-01   6   5   6   3
 -0.1088310392639169E-15   6   5   6   4
  0.8227554924836813E-01   6   5   6   5
  0.3764294079700184E+00   6   6   1   1
  0.4402728182029136E-14   6   6   2   1
  0.3819188482414621E+00   6   6   2   2
  0.1333271631446083E-01   6   6   3   1
  0.1284562733960826E-14   6   6   3   2
  0.3567699008727431E+00   6   6   3   3
  0.2706053806621339E-16   6   6   4   1
  0.6804363457925729E-16   6   6   4   2
  0.1187700410297739E-16   6   6   4   3
  0.3603615331179963E+00   6   6   4   4
 -0.1402892210676418E-01   6   6   5   1
  0.2518818487118324E-14   6   6   5   2
  0.2607774533903762E-02   6   6   5   3
  0.4574065102052169E-16   6   6   5   4
  0.3126901596500549E+00   6   6   5   5
 -0.3989863994746656E-15   6   6   6   1
 -0.1208744187062494E-01   6   6   6   2
  0.1811051308919787E-14   6   6   6   3
 -0.4072398809575926E-16   6   6   6   4
  0.6605826996519681E-14   6   6   6   5
  0.3202082566851953E+00   6   6   6   6
 -0.3414648889884603E-15   7   1   1   1
 -0.1190037335879549E-02   7   1   2   1
 -0.2397251587847723E-15   7   1   2   2
  0.3297329857071540E-16   7   1   3   1
 -0.3224808027084715E-01   7   1   3   2
 -0.2486852385774213E-15   7   1   3   3
  0.6240437145721499E-16   7   1   4   1
  0.6061003734930132E-16   7   1   4   2
 -0.1008737754275749E-15   7   1   4   3
 -0.3639367754734332E-15   7   1   4   4
  0.7754213937616328E-15   7   1   5   1
 -0.1197334838271910E-01   7   1   5   2
 -0.1320558246087344E-15   7   1   5   3
 -0.7136777128820703E-16   7   1   5   4
  0.6197223447258780E-15   7   1   5   5
 -0.1731800423229884E-01   7   1   6   1
 -0.4137315490204685E-15   7   1   6   2
  0.1028753765503801E-02   7   1   6   3
  0.3360276750736482E-17   7   1   6   4
 -0.1410531945849677E-01   7   1   6   5
 -0.1393210483144419E-14   7   1   6   6
  0.3363083043314482E-01   7   1   7   1
  0.2431908552950026E-01   7   2   1   1
 -0.2052394712515060E-15   7   2   2   1
  0.1777847612285708E-01   7   2   2   2
 -0.6731607714964000E-01   7   2   3   1
  0.3057450126409123E-16   7   2   3   2
  0.5696722732372793E-01   7   2   3   3
  0.1093796640671923E-15   7   2   4   1
 -0.1821260834277059E-15   7   2   4   2
  0.1581158850976981E-16   7   2   4   3
  0.6186515507997953E-01   7   2   4   4
 -0.1706767471258630E-01   7   2   5   1
  0.1335737076502141E-14   7   2   5   2
 -0.1899700611938346E-01   7   2   5   3
  0.1104250450653297E-15   7   2   5   4
 -0.2203387039684881E-01   7   2   5   5
 -0.7095019016745141E-15   7   2   6   1
 -0.4740039668453581E-01   7   2   6   2
 -0.7502679033599691E-15   7   2   6   3
 -0.1456853657719641E-15   7   2   6   4
 -0.5620504062164855E-15   7   2   6   5
 -0.1221883489540302E-01   7   2   6   6
  0.1660997728247793E-15   7   2   7   1
  0.7568668548970015E-01   7   2   7   2
 -0.2458842228891677E-15   7   3   1   1
 -0.7161452082715536E-01   7   3   2   1
 -0.8589475686165345E-16   7   3   2   2
  0.2024340981301997E-15   7   3   3   1
 -0.8867162122362781E-03   7   3   3   2
  0.6403995152747660E-17   7   3   3   3
 -0.1944496865715450E-15   7   3   4   1
  0.4377375808376598E-17   7   3   4   2
 -0.1317923492642292E-16   7   3   4   3
 -0.1551476862026127E-15   7   3   4   4
 -0.1088538981175446E-15   7   3   5   1
 -0.1313824263483040E-01   7   3   5   2
  0.7381248390281314E-15   7   3   5   3
 -0.4239658101327384E-16   7   3   5   4
  0.2337128700439407E-14   7   3   5   5
  0.8306464556255113E-02   7   3   6   1
 -0.6323067069935462E-15   7   3   6   2
 -0.2528617095921844E-01   7   3   6   3
  0.6901889008214294E-16   7   3   6   4
 -0.3387715515128890E-01   7   3   6   5
 -0.2871109980740184E-14   7   3   6   6
  0.7947927061407080E-02   7   3   7   1
  0.7459310946700271E-16   7   3   7   2
  0.4923615742774003E-01   7   3   7   3
  0.2325031918179524E-15   7   4   1   1
  0.1321374930832812E-15   7   4   2   1
  0.1001737007079714E-15   7   4   2   2
 -0.2002813291156683E-15   7   4   3   1
  0.1943695944325605E-16   7   4   3   2
  0.2995067588167502E-15   7   4   3   3
  0.1610277130668409E-16   7   4   4   1
  0.1123997601942609E-01   7   4   4   2
 -0.2263314386710853E-16   7   4   4   3
  0.4466357437384771E-15   7   4   4   4
 -0.1128491033438366E-15   7   4   5   1
  0.2615157126261865E-16   7   4   5   2
 -0.8117765805495063E-16   7   4   5   3
  0.2118641159319819E-15   7   4   5   4
 -0.3947711660286806E-16   7   4   5   5
 -0.2081740238065960E-16   7   4   6   1
 -0.1832266569827112E-15   7   4   6   2
  0.3563175634647960E-16   7   4   6   3
 -0.5580632497879989E-02   7   4   6   4
  0.3279400809531071E-16   7   4   6   5
 -0.1240839753841319E-16   7   4   6   6
 -0.1666037997187967E-16   7   4   7   1
  0.2447205715298973E-15   7   4   7   2
 -0.7866782105275100E-16   7   4   7   3
  0.7200292296350956E-02   7   4   7   4
  0.3784604199670748E-14   7   5   1   1
 -0.1438784563081713E-01   7   5   2   1
  0.3371570747232593E-14   7   5   2   2
 -0.2904306569545545E-16   7   5   3   1
 -0.1148630490026134E-01   7   5   3   2
  0.3441643954169494E-14   7   5   3   3
 -0.8770175630296395E-16   7   5   4   1
  0.2329865217651514E-16   7   5   4   2
 -0.2631422401025177E-16   7   5   4   3
  0.3279306711346982E-14   7   5   4   4
 -0.5329937879938740E-15   7   5   5   1
 -0.3097860571268223E-02   7   5   5   2
  0.6071532165918825E-17   7   5   5   3
 -0.7548136336328658E-17   7   5   5   4
  0.1380485994212600E-14   7   5   5   5
 -0.2651127399618976E-02   7   5   6   1
 -0.7541710311809169E-15   7   5   6   2
 -0.4665018533948519E-02   7   5   6   3
 -0.2731754313167540E-17   7   5   6   4
 -0.8681662426861659E-03   7   5   6   5
  0.2957273601421790E-15   7   5   6   6
  0.1468552622096529E-01   7   5   7   1
 -0.2545706700995964E-15   7   5   7   2
  0.1155158988301416E-01   7   5   7   3
 -0.2908712682679507E-16   7   5   7   4
  0.2093337965236638E-01   7   5   7   5
 -0.1221069903878740E+00   7   6   1   1
 -0.4408366033326061E-15   7   6   2   1
 -0.1233850273237158E+00   7   6   2   2
 -0.1069826656521864E-02   7   6   3   1
 -0.3744834303764932E-15   7   6   3   2
 -0.1174968597717959E+00   7   6   3   3
 -0.3947787878919154E-16   7   6   4   1
 -0.3918368393633424E-16   7   6   4   2
  0.1603739396604222E-18   7   6   4   3
 -0.1116963360887846E+00   7   6   4   4
  0.1359318720219439E-01   7   6   5   1
 -0.7615436059538183E-15   7   6   5   2
  0.3691332861657515E-02   7   6   5   3
 -0.7419950404345016E-16   7   6   5   4
 -0.4479807395614256E-01   7   6   5   5
  0.3087807787238717E-15   7   6   6   1
  0.1956361747205060E-01   7   6   6   2
  0.1942890293094024E-15   7   6   6   3
  0.7213778274565674E-16   7   6   6   4
 -0.5412337245047638E-15   7   6   6   5
 -0.4330556301549477E-01   7   6   6   6
  0.4111294638065033E-15   7   6   7   1
  0.9090865394890445E-02   7   6   7   2
  0.2988061187370050E-15   7   6   7   3
  0.6455089084000115E-17   7   6   7   4
 -0.3434752482434078E-15   7   6   7   5
  0.4473919489241887E-01   7   6   7   6
  0.4867363798434615E+00   7   7   1   1
  0.7615436059538183E-15   7   7   2   1
  0.4965826869257871E+00   7   7   2   2
  0.2994450652985961E-01   7   7   3   1
  0.2081668171172169E-16   7   7   3   2
  0.4596013669394718E+00   7   7   3   3
  0.1736642903992889E-16   7   7   4   1
  0.1487379697507612E-15   7   7   4   2
 -0.6978162628617955E-17   7   7   4   3
  0.4460410728487972E+00   7   7   4   4
 -0.1924811366452051E-01   7   7   5   1
  0.9992007221626409E-15   7   7   5   2
 -0.1521547210451696E-02   7   7   5   3
  0.1106152485996388E-15   7   7   5   4
  0.3423825626228104E+00   7   7   5   5
 -0.8187894806610529E-15   7   7   6   1
 -0.1843058358034716E-01   7   7   6   2
  0.5898059818321144E-15   7   7   6   3
 -0.7500104408833539E-16   7   7   6   4
  0.2498001805406602E-14   7   7   6   5
  0.3409407072761391E+00   7   7   6   6
  0.3694961003830599E-15   7   7   7   1
 -0.4692884239453234E-01   7   7   7   2
  0.1075528555105620E-15   7   7   7   3
 -0.1245247173498157E-15   7   7   7   4
  0.3122502256758253E-14   7   7   7   5
 -0.8983590784037854E-01   7   7   7   6
  0.4521055968841082E+00   7   7   7   7
  0.6635819418535951E-01   8   1   1   1
 -0.6162605148407607E-15   8   1   2   1
  0.2579496972818583E-01   8   1   2   2
  0.1681888247284991E-01   8   1   3   1
  0.1526556658859590E-15   8   1   3   2
  0.4407282352469506E-01   8   1   3   3
  0.1207467830384705E-17   8   1   4   1
 -0.1528546512987376E-15   8   1   4   2
  0.8694211031834305E-16   8   1   4   3
  0.8027234854546696E-01   8   1   4   4
 -0.3517214634725800E-01   8   1   5   1
  0.1212788550142285E-14   8   1   5   2
 -0.2218116595754596E-01   8   1   5   3
  0.1029627888018238E-15   8   1   5   4
  0.6932306083649242E-02   8   1   5   5
 -0.1292368989602721E-14   8   1   6   1
 -0.2704619481458001E-01   8   1   6   2
 -0.8985867605559861E-15   8   1   6   3
 -0.1218483716240287E-15   8   1   6   4
  0.7762887554996212E-15   8   1   6   5
 -0.3564632372065739E-02   8   1   6   6
 -0.4336131063584214E-15   8   1   7   1
  0.2592982321945935E-01   8   1   7   2
  0.5926655650620449E-15   8   1   7   3
  0.1320665892427259E-15   8   1   7   4
 -0.1301042606982605E-15   8   1   7   5
  0.3630975206717312E-02   8   1   7   6
 -0.2120111265148419E-01   8   1   7   7
  0.4677249903347355E-01   8   1   8   1
 -0.2703993241618459E-14   8   2   1   1
 -0.5244196575716537E-01   8   2   2   1
 -0.2457069948538264E-14   8   2   2   2
  0.4692155951974142E-15   8   2   3   1
 -0.1585300732792043E-01   8   2   3   2
 -0.2444289408947373E-14   8   2   3   3
 -0.2554784460035193E-15   8   2   4   1
  0.3199271622632920E-16   8   2   4   2
 -0.5977797068030179E-16   8   2   4   3
 -0.2889355951065502E-14   8   2   4   4
  0.1156193196738542E-14   8   2   5   1
 -0.2548878978845168E-01   8   2   5   2
  0.1082901129878522E-14   8   2   5   3
 -0.5422283420085191E-16   8   2   5   4
  0.2507332808688783E-14   8   2   5   5
 -0.7649281954651619E-02   8   2   6   1
  0.5117434254131581E-16   8   2   6   2
 -0.2050643160174548E-01   8   2   6   3
  0.6545063438956303E-16   8   2   6   4
 -0.4035467997766321E-01   8   2   6   5
 -0.3747926488290184E-14   8   2   6   6
  0.2515002336650319E-01   8   2   7   1
 -0.5733261088103347E-15   8   2   7   2
  0.4021943751881978E-01   8   2   7   3
 -0.7020585845483208E-16   8   2   7   4
  0.1825772370584217E-01   8   2   7   5
  0.9645062526431047E-15   8   2   7   6
 -0.1803601094795736E-14   8   2   7   7
 -0.6132247487578013E-15   8   2   8   1
  0.5919901183979204E-01   8   2   8   2
  0.7430827290242083E-01   8   3   1   1
  0.5188991597515624E-15   8   3   2   1
  0.4580042492045374E-01   8   3   2   2
 -0.8101600601925196E-02   8   3   3   1
 -0.9410874857174178E-16   8   3   3   2
  0.8462358152529720E-01   8   3   3   3
  0.9556933081012881E-16   8   3   4   1
 -0.1058046238398921E-15   8   3   4   2
  0.3909142174177907E-16   8   3   4   3
  0.7859666858603169E-01   8   3   4   4
 -0.2975729902394565E-01   8   3   5   1
  0.1101983088114267E-14   8   3   5   2
 -0.2201914032120483E-01   8   3   5   3
  0.7839692459527792E-16   8   3   5   4
  0.7823009904172300E-02   8   3   5   5
 -0.1523087211907637E-14   8   3   6   1
 -0.3379486467016487E-01   8   3   6   2
 -0.5503410227536421E-15   8   3   6   3
 -0.1251321685839891E-15   8   3   6   4
  0.6418476861114186E-15   8   3   6   5
  0.3931128226742882E-02   8   3   6   6
 -0.1249543003789544E-15   8   3   7   1
  0.3324487183892828E-01   8   3   7   2
 -0.2135878279796444E-15   8   3   7   3
  0.1455266898125639E-15   8   3   7   4
  0.1517883041479706E-15   8   3   7   5
 -0.2990022550667923E-02   8   3   7   6
 -0.8975763743015083E-02   8   3   7   7
  0.3316323921394020E-01   8   3   8   1
 -0.1095152614427608E-14   8   3   8   2
  0.3819575049265131E-01   8   3   8   3
  0.6653889194473084E-16   8   4   1   1
 -0.2908615571040429E-15   8   4   2   1
  0.1236393031264809E-15   8   4   2   2
  0.9784352610207231E-16   8   4   3   1
 -0.4992806793914326E-16   8   4   3   2
  0.4748304476298893E-16   8   4   3   3
  0.4811679008025675E-01   8   4   4   1
 -0.1962270406927202E-15   8   4   4   2
 -0.2479982525859081E-02   8   4   4   3
  0.1248619514504482E-15   8   4   4   4
  0.6310388900915326E-16   8   4   5   1
 -0.5336339104435281E-16   8   4   5   2
 -0.1218027065830684E-16   8   4   5   3
 -0.1293440723980640E-01   8   4   5   4
  0.2039078993170646E-16   8   4   5   5
 -0.5595276262073417E-16   8   4   6   1
  0.1238270915680635E-16   8   4   6   2
 -0.7125333082135985E-16   8   4   6   3
 -0.2856601673956183E-15   8   4   6   4
 -0.1242899261461840E-15   8   4   6   5
  0.5459788195635685E-16   8   4   6   6
  0.1151867845492150E-15   8   4   7   1
 -0.5175405263848305E-16   8   4   7   2
  0.1305810512985878E-15   8   4   7   3
 -0.4546872860861084E-16   8   4   7   4
  0.4753958474168415E-16   8   4   7   5
 -0.4889295291562932E-16   8   4   7   6
  0.1270915659670608E-15   8   4   7   7
 -0.4474184811829086E-16   8   4   8   1
  0.1333326573672187E-15   8   4   8   2
 -0.1057034093624448E-16   8   4   8   3
  0.2265794831576683E-01   8   4   8   4
 -0.1272135278538976E+00   8   5   1   1
  0.1364143173421262E-14   8   5   2   1
 -0.1202021600910739E+00   8   5   2   2
 -0.2623077833842842E-01   8   5   3   1
  0.5759281940243000E-15   8   5   3   2
 -0.1017113652503509E+00   8   5   3   3
  0.6973676965175737E-16   8   5   4   1
 -0.2915858641255320E-16   8   5   4   2
 -0.4337331343204295E-16   8   5   4   3
 -0.1101809455693523E+00   8   5   4   4
  0.2133063372812082E-01   8   5   5   1
 -0.1439820485060750E-15   8   5   5   2
  0.8983754571327801E-02   8   5   5   3
 -0.8873876973398274E-16   8   5   5   4
 -0.4897274299238914E-01   8   5   5   5
  0.1002670169114595E-14   8   5   6   1
  0.1165227128833804E-01   8   5   6   2
  0.7823602876655400E-15   8   5   6   3
  0.5287788434556604E-16   8   5   6   4
 -0.1804112415015879E-15   8   5   6   5
 -0.4883933477109858E-01   8   5   6   6
 -0.8456776945386935E-16   8   5   7   1
  0.1856482084186231E-01   8   5   7   2
 -0.8500145032286355E-15   8   5   7   3
  0.2888020136441350E-16   8   5   7   4
 -0.1719978326431004E-14   8   5   7   5
  0.3743926196088573E-01   8   5   7   6
 -0.8756356177930068E-01   8   5   7   7
 -0.4064217349351869E-02   8   5   8   1
 -0.6904199434387692E-15   8   5   8   2
 -0.4923944764047863E-02   8   5   8   3
 -0.2093636686994167E-16   8   5   8   4
  0.4971393876778547E-01   8   5   8   5
 -0.3062015745079845E-14   8   6   1   1
 -0.2938013638880344E-01   8   6   2   1
 -0.2523369788146861E-14   8   6   2   2
 -0.1140316411175207E-14   8   6   3   1
 -0.1657386055442684E-01   8   6   3   2
 -0.1985093985613164E-14   8   6   3   3
 -0.1114710891500994E-15   8   6   4   1
  0.2166357486610265E-16   8   6   4   2
 -0.5538036461441926E-16   8   6   4   3
 -0.2192654858024162E-14   8   6   4   4
  0.7320533068622126E-15   8   6   5   1
 -0.1056308538605534E-01   8   6   5   2
  0.3571361956167252E-15   8   6   5   3
 -0.3165156791450067E-16   8   6   5   4
 -0.5380478353012520E-15   8   6   5   5
 -0.4234939538991419E-02   8   6   6   1
 -0.7875644580934704E-15   8   6   6   2
 -0.8173330905751803E-02   8   6   6   3
  0.2592075824908797E-16   8   6   6   4
 -0.1819520678984747E-01   8   6   6   5
 -0.3200784277967281E-14   8   6   6   6
  0.1753578778932456E-01   8   6   7   1
  0.8370040771588094E-15   8   6   7   2
  0.1976466233827393E-01   8   6   7   3
 -0.4522733772648636E-16   8   6   7   4
  0.1928815818723815E-01   8   6   7   5
  0.1790234627208065E-14   8   6   7   6
 -0.2340440146223519E-14   8   6   7   7
 -0.5117434254131581E-15   8   6   8   1
  0.2965052272699954E-01   8   6   8   2
 -0.1320558246087344E-15   8   6   8   3
  0.8849488498802591E-16   8   6   8   4
  0.4328135072562134E-15   8   6   8   5
  0.2699598981091326E-01   8   6   8   6
 -0.2165823286873431E-15   8   7   1   1
  0.7724979031986665E-01   8   7   2   1
 -0.1106786026498205E-14   8   7   2   2
 -0.2204318541934591E-15   8   7   3   1
  0.3613840998297475E-01   8   7   3   2
 -0.1242923988916713E-14   8   7   3   3
  0.2217407247283999E-15   8   7   4   1
 -0.5702579947577469E-16   8   7   4   2
  0.1346683199248451E-15   8   7   4   3
 -0.5920113424679348E-15   8   7   4   4
 -0.2684484579074109E-15   8   7   5   1
  0.3423805798499899E-01   8   7   5   2
 -0.7307522642552300E-15   8   7   5   3
  0.1161019955251719E-15   8   7   5   4
 -0.5569363800406586E-14   8   7   5   5
  0.1249948290250746E-01   8   7   6   1
  0.1849215225391276E-14   8   7   6   2
  0.2639068722791425E-01   8   7   6   3
 -0.1097645227758688E-15   8   7   6   4
  0.7368014438785339E-01   8   7   6   5
  0.5576196480925074E-14   8   7   6   6
 -0.4180666033405631E-01   8   7   7   1
 -0.6028164079019405E-15   8   7   7   2
 -0.5630029318229773E-01   8   7   7   3
  0.9896405070745391E-16   8   7   7   4
 -0.2582324808273748E-01   8   7   7   5
  0.4857225732735060E-16   8   7   7   6
  0.3388694263039279E-14   8   7   7   7
 -0.5451368523257116E-15   8   7   8   1
 -0.7644980450818330E-01   8   7   8   2
  0.8946836327350383E-15   8   7   8   3
 -0.2480043208583901E-15   8   7   8   4
  0.2366162821232365E-14   8   7   8   5
 -0.4480921251894551E-01   8   7   8   6
  0.1236220160505191E+00   8   7   8   7
  0.5097107261859809E+00   8   8   1   1
 -0.1706100538623190E-14   8   8   2   1
  0.5087734669587027E+00   8   8   2   2
  0.5930589227490166E-01   8   8   3   1
 -0.7164407955784213E-15   8   8   3   2
  0.4566053185242295E+00   8   8   3   3
 -0.4968697072862263E-16   8   8   4   1
  0.1261334425234066E-15   8   8   4   2
  0.4431533457120849E-16   8   8   4   3
  0.4659779361424571E+00   8   8   4   4
 -0.3014333324439034E-01   8   8   5   1
  0.3469446951953614E-15   8   8   5   2
 -0.4401764412729881E-02   8   8   5   3
  0.1195468554504426E-15   8   8   5   4
  0.3609148793319516E+00   8   8   5   5
 -0.1006139616066548E-14   8   8   6   1
 -0.1262751714099125E-01   8   8   6   2
 -0.5828670879282072E-15   8   8   6   3
 -0.6611270589161054E-16   8   8   6   4
 -0.5551115123125783E-15   8   8   6   5
  0.3516064426563663E+00   8   8   6   6
  0.9332812300755222E-15   8   8   7   1
 -0.6040942238257047E-01   8   8   7   2
  0.3330669073875470E-15   8   8   7   3
 -0.1467004264333789E-15   8   8   7   4
  0.1609823385706477E-14   8   8   7   5
 -0.9207643973011548E-01   8   8   7   6
  0.4545716702557244E+00   8   8   7   7
 -0.1103144715207832E-01   8   8   8   1
  0.1134509153288832E-14   8   8   8   2
 -0.3969312778427853E-02   8   8   8   3
  0.1201820348207033E-15   8   8   8   4
 -0.1039138633053481E+00   8   8   8   5
 -0.2858824288409778E-14   8   8   8   6
 -0.3483324739761429E-14   8   8   8   7
  0.4886786993503158E+00   8   8   8   8
  0.4683901449345402E-16   9   1   1   1
  0.1408718002017736E-15   9   1   2   1
 -0.1234967792926187E-16   9   1   2   2
 -0.1029248480844085E-15   9   1   3   1
 -0.4235440958334785E-16   9   1   3   2
  0.1613228106686950E-15   9   1   3   3
 -0.3477883257566394E-01   9   1   4   1
 -0.5123331721026839E-16   9   1   4   2
  0.1116310695301229E-01   9   1   4   3
 -0.7819260230709833E-17   9   1   4   4
 -0.3379573237858487E-16   9   1   5   1
 -0.7627671594769591E-16   9   1   5   2
  0.5171020602840127E-16   9   1   5   3
  0.1729501402364473E-01   9   1   5   4
  0.5816838704636753E-16   9   1   5   5
 -0.1881878762385389E-16   9   1   6   1
  0.6379706984057087E-17   9   1   6   2
 -0.4539972140870821E-19   9   1   6   3
  0.9920178827699244E-15   9   1   6   4
 -0.2891394345480671E-16   9   1   6   5
  0.1690981139833702E-16   9   1   6   6
 -0.9142193626468646E-17   9   1   7   1
 -0.7113325921592945E-17   9   1   7   2
  0.1270701621659518E-16   9   1   7   3
  0.5072710914516554E-16   9   1   7   4
  0.1010546101990284E-16   9   1   7   5
 -0.2091684675962505E-16   9   1   7   6
  0.2131282668807584E-16   9   1   7   7
  0.1053314936789188E-16   9   1   8   1
  0.6892700050057810E-16   9   1   8   2
  0.8603011135289345E-17   9   1   8   3
 -0.1286066937690387E-01   9   1   8   4
 -0.5364832299032817E-17   9   1   8   5
  0.1799504866653356E-16   9   1   8   6
 -0.4946053670811104E-16   9   1   8   7
  0.4680158674679454E-17   9   1   8   8
  0.3169963353373166E-01   9   1   9   1
  0.7201077800179264E-15   9   2   1   1
 -0.1112463647309213E-15   9   2   2   1
  0.6356923112374302E-15   9   2   2   2
 -0.7952664216983294E-16   9   2   3   1
 -0.2796028987874091E-16   9   2   3   2
  0.6822047402643034E-15   9   2   3   3
 -0.5789385491188417E-16   9   2   4   1
 -0.6326305096835029E-02   9   2   4   2
 -0.3823506723905912E-16   9   2   4   3
  0.8061054281712168E-15   9   2   4   4
 -0.2289138152549828E-15   9   2   5   1
 -0.6890812496774435E-17   9   2   5   2
 -0.1130669110589549E-15   9   2   5   3
 -0.2133303299636791E-15   9   2   5   4
  0.1195617933715457E-15   9   2   5   5
  0.2374559904551441E-16   9   2   6   1
 -0.2912714446423731E-15   9   2   6   2
  0.6548156182492145E-17   9   2   6   3
  0.6785275159201617E-02   9   2   6   4
 -0.2894573978141274E-16   9   2   6   5
  0.1362176843056245E-15   9   2   6   6
 -0.7397613287881155E-17   9   2   7   1
  0.1738411116462722E-15   9   2   7   2
  0.2094653367463187E-16   9   2   7   3
 -0.3539248104510369E-02   9   2   7   4
 -0.1341144471997987E-16   9   2   7   5