 &FCI NORB= 23,NELEC=  7,MS2= 1,
  ORBSYM=1,1,1,1,1,1,1,1,1,1,1,1,1,1,1,1,1,2,2,2,2,2,2,
  ISYM=1,
  OCC=  4,  1,  0,  0,  0,  0,  0,  0,
  CLOSED=  3,  1,  0,  0,  0,  0,  0,  0,
 /
  0.7855447191376340E+00   1   1   1   1
 -0.7385888187661279E-13   2   1   1   1
  0.1623189506346460E+00   2   1   2   1
  0.7210551236877482E+00   2   2   1   1
  0.1896781343102560E-12   2   2   2   1
  0.7166647939670291E+00   2   2   2   2
  0.3590935352602063E-01   3   1   1   1
 -0.6823404688494072E-13   3   1   2   1
  0.8942708840432821E-02   3   1   2   2
  0.1228189260690652E+00   3   1   3   1
 -0.7108696158453241E-13   3   2   1   1
  0.5000292051240924E-02   3   2   2   1
 -0.4648271411777320E-13   3   2   2   2
  0.4166473752380967E-13   3   2   3   1
  0.4119988698687804E-01   3   2   3   2
  0.7152080812083662E+00   3   3   1   1
  0.1113562367316412E-12   3   3   2   1
  0.6636920063934731E+00   3   3   2   2
 -0.8654383675108585E-01   3   3   3   1
 -0.1061338517072130E-12   3   3   3   2
  0.8341312641150207E+00   3   3   3   3
 -0.1147325978884452E+00   4   1   1   1
 -0.2407561996986551E-12   4   1   2   1
 -0.8540667111529848E-01   4   1   2   2
 -0.1421337443033217E-01   4   1   3   1
  0.1182940464333759E-12   4   1   3   2
 -0.8871908489760010E-01   4   1   3   3
  0.4043212220369101E-01   4   1   4   1
 -0.8283679267260414E-12   4   2   1   1
  0.1311252375915932E-02   4   2   2   1
 -0.7576402473005330E-12   4   2   2   2
  0.2467268265236335E-12   4   2   3   1
  0.5516871459924166E-02   4   2   3   2
 -0.9185058766881320E-12   4   2   3   3
  0.3374784176071732E-12   4   2   4   1
  0.2035038329598237E-01   4   2   4   2
 -0.5120957204017430E-01   4   3   1   1
  0.2760202277244522E-12   4   3   2   1
 -0.3432381266755757E-01   4   3   2   2
 -0.9332639384594219E-03   4   3   3   1
 -0.6060126359064277E-13   4   3   3   2
 -0.5333863878669853E-01   4   3   3   3
  0.2101333860649514E-01   4   3   4   1
  0.2186094187617282E-12   4   3   4   2
  0.1722430721312746E-01   4   3   4   3
  0.3896426719185054E+00   4   4   1   1
  0.6969294932823722E-12   4   4   2   1
  0.3774049618765993E+00   4   4   2   2
  0.3427497289014069E-01   4   4   3   1
  0.1763806115051558E-12   4   4   3   2
  0.3537631816436897E+00   4   4   3   3
 -0.1771925571810319E-01   4   4   4   1
  0.2610203719832782E-12   4   4   4   2
  0.1782348984629978E-03   4   4   4   3
  0.3211581099745285E+00   4   4   4   4
  0.9274563441588816E-12   5   1   1   1
 -0.3188336313970485E-01   5   1   2   1
  0.7262727971535078E-12   5   1   2   2
  0.1241288159498782E-13   5   1   3   1
  0.1517261790086891E-01   5   1   3   2
  0.8067124085769770E-12   5   1   3   3
 -0.1509906498334095E-12   5   1   4   1
  0.1375451405564991E-01   5   1   4   2
 -0.1902912032049515E-12   5   1   4   3
  0.2338321738724730E-12   5   1   4   4
  0.2015891722924461E-01   5   1   5   1
 -0.1168324341365685E+00   5   2   1   1
  0.8675417155490361E-13   5   2   2   1
 -0.1096673363285421E+00   5   2   2   2
  0.3256991708057044E-01   5   2   3   1
  0.5990867524285903E-14   5   2   3   2
 -0.1299518505951564E+00   5   2   3   3
  0.3665254884531642E-01   5   2   4   1
  0.3299591502803345E-12   5   2   4   2
  0.2095177168423925E-01   5   2   4   3
 -0.5975197185549847E-02   5   2   4   4
 -0.3915925743391835E-12   5   2   5   1
  0.6001182083097321E-01   5   2   5   2
  0.2599892879572047E-13   5   3   1   1
  0.3510622657242791E-01   5   3   2   1
  0.2560268331822855E-13   5   3   2   2
  0.1022644086925116E-12   5   3   3   1
 -0.1072192510874852E-01   5   3   3   2
 -0.5747266968687509E-13   5   3   3   3
 -0.1241671696017299E-12   5   3   4   1
  0.8146840303754115E-02   5   3   4   2
  0.6319207310201413E-13   5   3   4   3
  0.1892360753311567E-12   5   3   4   4
 -0.5211292822144974E-02   5   3   5   1
 -0.4778642759273311E-13   5   3   5   2
  0.1784889795283477E-01   5   3   5   3
 -0.2230953416406398E-13   5   4   1   1
  0.5711221058532567E-01   5   4   2   1
  0.1986182432489663E-12   5   4   2   2
 -0.1780280838113019E-12   5   4   3   1
  0.1349264999042557E-01   5   4   3   2
  0.1628495683762385E-12   5   4   3   3
  0.1178310921057246E-13   5   4   4   1
  0.2654964602194933E-01   5   4   4   2
  0.1794944401445342E-12   5   4   4   3
  0.8904550663418699E-12   5   4   4   4
  0.6935228391380069E-02   5   4   5   1
 -0.1660390575031201E-12   5   4   5   2
  0.2185618281510893E-01   5   4   5   3
  0.8254129507415325E-01   5   4   5   4
  0.3815701471691776E+00   5   5   1   1
 -0.6995385173902413E-12   5   5   2   1
  0.3860159287201698E+00   5   5   2   2
  0.1155605904912860E-01   5   5   3   1
 -0.1348070960416337E-12   5   5   3   2
  0.3622543452081172E+00   5   5   3   3
 -0.1426433639952776E-01   5   5   4   1
 -0.3943095849834322E-12   5   5   4   2
  0.2714570899675028E-02   5   5   4   3
  0.3136544780884696E+00   5   5   4   4
  0.9524325772503062E-13   5   5   5   1
 -0.1252765622466112E-01   5   5   5   2
 -0.3645000967722467E-12   5   5   5   3
 -0.9451883720146270E-12   5   5   5   4
  0.3233008848936039E+00   5   5   5   5
  0.2072131845851909E-13   6   1   1   1
 -0.7170066402740739E-02   6   1   2   1
 -0.1022400230005031E-12   6   1   2   2
  0.3569662808075059E-13   6   1   3   1
 -0.3170365157535884E-01   6   1   3   2
 -0.4682467895297211E-14   6   1   3   3
 -0.1404041813368728E-12   6   1   4   1
 -0.1215038007032324E-01   6   1   4   2
 -0.1190844298171179E-13   6   1   4   3
 -0.2177360053982351E-12   6   1   4   4
 -0.1711620404026949E-01   6   1   5   1
  0.5240252676230739E-13   6   1   5   2
  0.1033100072209399E-02   6   1   5   3
 -0.1569675839299923E-01   6   1   5   4
  0.1110215110156140E-12   6   1   5   5
  0.3397087653182848E-01   6   1   6   1
  0.1352084794602823E-01   6   2   1   1
 -0.2168767823749335E-12   6   2   2   1
  0.1339612599874905E-01   6   2   2   2
 -0.6534475613649024E-01   6   2   3   1
 -0.1125735789309079E-12   6   2   3   2
  0.6303000944457086E-01   6   2   3   3
 -0.1665020337848049E-01   6   2   4   1
 -0.4199184402975398E-12   6   2   4   2
 -0.1581619229969337E-01   6   2   4   3
 -0.2325332615370709E-01   6   2   4   4
  0.1420226783399592E-12   6   2   5   1
 -0.4732312167864400E-01   6   2   5   2
 -0.4070441900205779E-13   6   2   5   3
 -0.5619463228079269E-13   6   2   5   4
 -0.1309344661016513E-01   6   2   5   5
  0.1207751346848918E-12   6   2   6   1
  0.7403094311404551E-01   6   2   6   2
 -0.3658216415953793E-13   6   3   1   1
 -0.6988119922028369E-01   6   3   2   1
 -0.2120332591721468E-12   6   3   2   2
  0.3314472448671252E-13   6   3   3   1
  0.4135164905794665E-02   6   3   3   2
 -0.1093754815995550E-12   6   3   3   3
  0.5736557062707703E-13   6   3   4   1
 -0.1131641027024363E-01   6   3   4   2
 -0.2016086950162865E-12   6   3   4   3
 -0.4018645972832416E-12   6   3   4   4
  0.8091833007262045E-02   6   3   5   1
  0.5419276138951545E-14   6   3   5   2
 -0.2565935183806682E-01   6   3   5   3
 -0.3201957197293178E-01   6   3   5   4
  0.3583015910631571E-12   6   3   5   5
  0.8225404665725262E-02   6   3   6   1
  0.1727160081621548E-12   6   3   6   2
  0.4611409846734911E-01   6   3   6   3
 -0.1047465292908890E-11   6   4   1   1
 -0.1314510920415838E-01   6   4   2   1
 -0.1104574545070400E-11   6   4   2   2
 -0.9557462379026008E-14   6   4   3   1
 -0.9902401282795178E-02   6   4   3   2
 -0.1019098400308897E-11   6   4   3   3
  0.9941331612084436E-13   6   4   4   1
 -0.2491128006387221E-02   6   4   4   2
  0.2479386054105026E-13   6   4   4   3
 -0.3519230384370793E-12   6   4   4   4
 -0.2998465603522243E-02   6   4   5   1
  0.1628410947751568E-12   6   4   5   2
 -0.4024330589197201E-02   6   4   5   3
  0.8376991995569685E-03   6   4   5   4
 -0.3791551275870262E-12   6   4   5   5
  0.1464266055797296E-01   6   4   6   1
  0.1661171200595390E-12   6   4   6   2
  0.9625692608257533E-02   6   4   6   3
  0.2071282384463621E-01   6   4   6   4
 -0.1229718459557011E+00   6   5   1   1
  0.1044130060190440E-13   6   5   2   1
 -0.1242384935071125E+00   6   5   2   2
 -0.1965064552496665E-03   6   5   3   1
  0.4279562815234783E-14   6   5   3   2
 -0.1208708922957718E+00   6   5   3   3
  0.1374319909731313E-01   6   5   4   1
  0.1134023430715558E-12   6   5   4   2
  0.3004097261717444E-02   6   5   4   3
 -0.4421736062413711E-01   6   5   4   4
 -0.1476908872977134E-12   6   5   5   1
  0.1948942266586053E-01   6   5   5   2
  0.5491440635552181E-13   6   5   5   3
 -0.5227068777813315E-13   6   5   5   4
 -0.4486115361697299E-01   6   5   5   5
  0.1692613063597470E-13   6   5   6   1
  0.1016168866817862E-01   6   5   6   2
  0.3840807880073349E-13   6   5   6   3
  0.3359656303159042E-12   6   5   6   4
  0.4593396090849305E-01   6   5   6   5
  0.4845296394670540E+00   6   6   1   1
  0.4961153016180830E-12   6   6   2   1
  0.4915323007369349E+00   6   6   2   2
  0.2753952351334312E-01   6   6   3   1
  0.1761871898375844E-12   6   6   3   2
  0.4550593418708748E+00   6   6   3   3
 -0.1905006359291619E-01   6   6   4   1
  0.7707723348460149E-13   6   6   4   2
 -0.9813570890676582E-03   6   6   4   3
  0.3393348238557756E+00   6   6   4   4
  0.2976716095837162E-12   6   6   5   1
 -0.1701907283300269E-01   6   6   5   2
  0.5531686220194842E-13   6   6   5   3
  0.4526379271396763E-12   6   6   5   4
  0.3421169433102175E+00   6   6   5   5
 -0.3342534582451151E-12   6   6   6   1
 -0.4718745135706204E-01   6   6   6   2
 -0.4442730905385162E-12   6   6   6   3
 -0.9186124083626623E-12   6   6   6   4
 -0.8940705904264945E-01   6   6   6   5
  0.4450199446629096E+00   6   6   6   6
  0.6852498382484071E-01   7   1   1   1
  0.7241982621225551E-14   7   1   2   1
  0.2695820855527320E-01   7   1   2   2
  0.1602431610996604E-01   7   1   3   1
  0.1057526462233671E-12   7   1   3   2
  0.4506394301826693E-01   7   1   3   3
 -0.3643999272650956E-01   7   1   4   1
 -0.1437248757507614E-12   7   1   4   2
 -0.2148884573678301E-01   7   1   4   3
  0.5749823250525825E-02   7   1   4   4
  0.3081103081004066E-12   7   1   5   1
 -0.2855013104195814E-01   7   1   5   2
  0.9001566853017451E-13   7   1   5   3
 -0.1368696822545701E-14   7   1   5   4
 -0.4424649740898724E-02   7   1   5   5
 -0.6294880523956270E-13   7   1   6   1
  0.2609074743649690E-01   7   1   6   2
  0.2114172552303284E-13   7   1   6   3
  0.1907328461836499E-14   7   1   6   4
  0.4337178072619062E-02   7   1   6   5
 -0.2151685423066923E-01   7   1   6   6
  0.4844023232731178E-01   7   1   7   1
 -0.2415976286140943E-12   7   2   1   1
 -0.5028621098802737E-01   7   2   2   1
 -0.3653805395387854E-12   7   2   2   2
  0.2377472472906740E-12   7   2   3   1
 -0.1294540665221008E-01   7   2   3   2
 -0.4648067081794075E-12   7   2   3   3
  0.5411903564178644E-13   7   2   4   1
 -0.2475059255508045E-01   7   2   4   2
 -0.8664379977374459E-13   7   2   4   3
 -0.4642428228730732E-12   7   2   4   4
 -0.9440687944323657E-02   7   2   5   1
  0.3072542220650121E-12   7   2   5   2
 -0.1990247359897791E-01   7   2   5   3
 -0.3985823764403764E-01   7   2   5   4
  0.4198238084305665E-12   7   2   5   5
  0.2648159649789577E-01   7   2   6   1
 -0.5912024342302757E-13   7   2   6   2
  0.3643405308308035E-01   7   2   6   3
  0.1735370884346483E-01   7   2   6   4
  0.3116951141635127E-13   7   2   6   5
 -0.4267839908129612E-12   7   2   6   6
 -0.2007625836408788E-12   7   2   7   1
  0.5640138939191217E-01   7   2   7   2
  0.8090610728119867E-01   7   3   1   1
  0.2169939033146162E-12   7   3   2   1
  0.5421163132288320E-01   7   3   2   2
 -0.1067084936290036E-01   7   3   3   1
 -0.5655025059336793E-13   7   3   3   2
  0.1004444833892705E+00   7   3   3   3
 -0.3183591050467597E-01   7   3   4   1
 -0.2282805021402989E-12   7   3   4   2
 -0.2006500260330912E-01   7   3   4   3
  0.9181718841571923E-02   7   3   4   4
  0.2020688304182894E-12   7   3   5   1
 -0.3660828118270265E-01   7   3   5   2
  0.1326968049331079E-12   7   3   5   3
  0.1097420765372448E-12   7   3   5   4
  0.7396491889506897E-02   7   3   5   5
  0.2192416712586132E-13   7   3   6   1
  0.3238239411623794E-01   7   3   6   2
 -0.1018000787833540E-12   7   3   6   3
 -0.6096685656320489E-13   7   3   6   4
 -0.5363027926307828E-02   7   3   6   5
 -0.3828912569270232E-02   7   3   6   6
  0.3321259355576812E-01   7   3   7   1
 -0.2461290719846243E-12   7   3   7   2
  0.4127893240094078E-01   7   3   7   3
 -0.1275189425090013E+00   7   4   1   1
 -0.1342188079428430E-12   7   4   2   1
 -0.1179629863109075E+00   7   4   2   2
 -0.2740089830496534E-01   7   4   3   1
 -0.8443441258665363E-13   7   4   3   2
 -0.9745385025012041E-01   7   4   3   3
  0.2095054527156855E-01   7   4   4   1
  0.1122886505999787E-13   7   4   4   2
  0.7144512354269654E-02   7   4   4   3
 -0.4974450284460322E-01   7   4   4   4
 -0.1948389366512870E-12   7   4   5   1
  0.9598547276679345E-02   7   4   5   2
 -0.4348951754273855E-13   7   4   5   3
 -0.1264682802926131E-12   7   4   5   4
 -0.5098607924344267E-01   7   4   5   5
  0.1184677356214081E-12   7   4   6   1
  0.2130078516586203E-01   7   4   6   2
  0.1267107078983809E-12   7   4   6   3
  0.4282381740883245E-12   7   4   6   4
  0.3760998887249808E-01   7   4   6   5
 -0.8593058218468470E-01   7   4   6   6
 -0.3962544975218225E-02   7   4   7   1
  0.1232703175646499E-12   7   4   7   2
 -0.7206544943830620E-02   7   4   7   3
  0.4946844123433188E-01   7   4   7   4
  0.1151887912055794E-11   7   5   1   1
 -0.3201554622622433E-01   7   5   2   1
  0.1031792042789034E-11   7   5   2   2
  0.1536823985670392E-12   7   5   3   1
 -0.1626432590292735E-01   7   5   3   2
  0.9317165393835975E-12   7   5   3   3
 -0.2073905283617172E-12   7   5   4   1
 -0.1159726562781591E-01   7   5   4   2
 -0.1169665492933847E-12   7   5   4   3
  0.1775654629775623E-12   7   5   4   4
 -0.5605357214910565E-02   7   5   5   1
 -0.9677154910736618E-13   7   5   5   2
 -0.8526229502543609E-02   7   5   5   3
 -0.2106625626956673E-01   7   5   5   4
  0.6938076882855303E-12   7   5   5   5
  0.1964767075996135E-01   7   5   6   1
 -0.9645062526431047E-15   7   5   6   2
  0.1945520651153358E-01   7   5   6   3
  0.1919499938009835E-01   7   5   6   4
 -0.3700650896831803E-12   7   5   6   5
  0.4815207785317095E-12   7   5   6   6
 -0.4183784395317414E-13   7   5   7   1
  0.3092369072175082E-01   7   5   7   2
  0.2215545455430679E-13   7   5   7   3
 -0.2761749162694116E-12   7   5   7   4
  0.2929091820839076E-01   7   5   7   5
 -0.1867305270573252E-12   7   6   1   1
  0.7792608109004891E-01   7   6   2   1
 -0.1153341991449800E-13   7   6   2   2
  0.2750494873093173E-13   7   6   3   1
  0.3167797755751025E-01   7   6   3   2
 -0.1560800142818614E-12   7   6   3   3
  0.9501384054533268E-13   7   6   4   1
  0.3410424962410878E-01   7   6   4   2
  0.2135414241266620E-12   7   6   4   3
  0.8524627951476154E-12   7   6   4   4
  0.1459451558777201E-01   7   6   5   1
 -0.5647218803694898E-13   7   6   5   2
  0.2550688220106528E-01   7   6   5   3
  0.7389357544606467E-01   7   6   5   4
 -0.9059048680847582E-12   7   6   5   5
 -0.4320875755360996E-01   7   6   6   1
 -0.3088744537915744E-12   7   6   6   2
 -0.5197782308914213E-01   7   6   6   3
 -0.2291495974185659E-01   7   6   6   4
  0.3366057432785396E-13   7   6   6   5
  0.6501314355200531E-12   7   6   6   6
  0.1546315159250966E-12   7   6   7   1
 -0.7376841609675303E-01   7   6   7   2
  0.1107395425359314E-12   7   6   7   3
 -0.2078962002549645E-12   7   6   7   4
 -0.4724642659989181E-01   7   6   7   5
  0.1209912791891667E+00   7   6   7   6
  0.5145029261713010E+00   7   7   1   1
 -0.4438411443929979E-12   7   7   2   1
  0.5072431349401847E+00   7   7   2   2
  0.5343124483261404E-01   7   7   3   1
 -0.2090532608134410E-12   7   7   3   2
  0.4584621960900981E+00   7   7   3   3
 -0.3103665412473486E-01   7   7   4   1
 -0.2919886554764162E-12   7   7   4   2
 -0.5101768693414332E-02   7   7   4   3
  0.3585301918607436E+00   7   7   4   4
  0.1895150703035142E-12   7   7   5   1
 -0.1291686574645562E-01   7   7   5   2
 -0.2092770401418420E-12   7   7   5   3
 -0.4743982984223294E-12   7   7   5   4
  0.3540784192341816E+00   7   7   5   5
  0.1929584964033282E-12   7   7   6   1
 -0.5892268426728417E-01   7   7   6   2
  0.1711165931173042E-12   7   7   6   3
 -0.6712824740517931E-12   7   7   6   4
 -0.9303238460602015E-01   7   7   6   5
  0.4487755430845080E+00   7   7   6   6
 -0.9945594272152112E-02   7   7   7   1
  0.5001728198283928E-12   7   7   7   2
  0.3831478502206997E-02   7   7   7   3
 -0.1043204885753805E+00   7   7   7   4
  0.1171104879738039E-11   7   7   7   5
 -0.7452614914083000E-12   7   7   7   6
  0.4837152443513346E+00   7   7   7   7
  0.5328333055283825E-02   8   1   1   1
  0.3780320240870383E-13   8   1   2   1
 -0.5957991333544613E-02   8   1   2   2
 -0.1942876881381143E-01   8   1   3   1
  0.5559051483028377E-13   8   1   3   2
  0.3503528475470781E-01   8   1   3   3
  0.1682657287177907E-02   8   1   4   1
 -0.3031234117878423E-13   8   1   4   2
  0.5739261767573089E-02   8   1   4   3
  0.3166905484551692E-02   8   1   4   4
  0.3273206358733738E-14   8   1   5   1
 -0.3780962315184748E-02   8   1   5   2
 -0.9137439069273334E-13   8   1   5   3
  0.6696032617270475E-15   8   1   5   4
  0.3923832046806649E-02   8   1   5   5
 -0.2181527257016230E-13   8   1   6   1
  0.7219389253836815E-02   8   1   6   2
  0.3181678011332512E-13   8   1   6   3
 -0.1327323667643654E-13   8   1   6   4
 -0.3305797283545621E-02   8   1   6   5
 -0.2889014997251514E-02   8   1   6   6
  0.1545305277409530E-02   8   1   7   1
 -0.4821447061043038E-13   8   1   7   2
  0.8734897993816767E-02   8   1   7   3
  0.5951722596499953E-02   8   1   7   4
 -0.4684013593658776E-13   8   1   7   5
  0.5123072105428506E-14   8   1   7   6
 -0.8670110544355850E-02   8   1   7   7
  0.2768045950423196E-01   8   1   8   1
  0.1307654896537944E-12   8   2   1   1
 -0.3761650730998446E-01   8   2   2   1
  0.1748538566775849E-13   8   2   2   2
  0.1365634561272151E-12   8   2   3   1
 -0.1300347349750022E-01   8   2   3   2
 -0.8037717365830790E-14   8   2   3   3
 -0.1690292870948351E-13   8   2   4   1
 -0.7000140813654590E-02   8   2   4   2
 -0.3001505294308870E-13   8   2   4   3
 -0.1543781928817816E-12   8   2   4   4
  0.1062730933198771E-02   8   2   5   1
  0.2758470535324520E-13   8   2   5   2
 -0.2870943729777203E-02   8   2   5   3
 -0.1791627392748098E-01   8   2   5   4
  0.2223225730589828E-12   8   2   5   5
  0.8677193884163447E-02   8   2   6   1
  0.6035102972923312E-14   8   2   6   2
  0.1388507489960356E-01   8   2   6   3
  0.8288840732470146E-03   8   2   6   4
  0.1047079090099601E-13   8   2   6   5
 -0.1445500529240779E-12   8   2   6   6
 -0.2204009544315433E-13   8   2   7   1
  0.2144184820501028E-01   8   2   7   2
 -0.1192188708865061E-13   8   2   7   3
  0.2670953735961490E-13   8   2   7   4
  0.1293387909249636E-01   8   2   7   5
 -0.3165501777792114E-01   8   2   7   6
  0.2711249171030773E-12   8   2   7   7
  0.1454973565673950E-13   8   2   8   1
  0.2692310274574461E-01   8   2   8   2
 -0.1322387724462576E+00   8   3   1   1
  0.1036204542309571E-12   8   3   2   1
 -0.1222757415446825E+00   8   3   2   2
  0.4071326960725274E-01   8   3   3   1
  0.2495952663300605E-13   8   3   3   2
 -0.1776566129266729E+00   8   3   3   3
  0.3598411605188198E-01   8   3   4   1
  0.3675705573247257E-12   8   3   4   2
  0.1733841894182044E-01   8   3   4   3
 -0.2186930014306913E-01   8   3   4   4
 -0.3344781049352541E-12   8   3   5   1
  0.5021735528278862E-01   8   3   5   2
  0.5590233137509060E-13   8   3   5   3
 -0.6446579381425011E-13   8   3   5   4
 -0.3454649688325495E-01   8   3   5   5
  0.2727874350016979E-13   8   3   6   1
 -0.3023180260730954E-01   8   3   6   2
 -0.6089866024655555E-13   8   3   6   3
  0.2484583719319922E-12   8   3   6   4
  0.2713180075472205E-01   8   3   6   5
 -0.4162869363872820E-01   8   3   6   6
 -0.1576368179005158E-01   8   3   7   1
  0.1506147637164723E-12   8   3   7   2
 -0.4588597501250879E-01   8   3   7   3
  0.2818912756380477E-01   8   3   7   4
 -0.2678048754978235E-12   8   3   7   5
  0.1130497605250635E-12   8   3   7   6
 -0.5378440694639076E-01   8   3   7   7
 -0.1456968727137437E-01   8   3   8   1
 -0.5022219619343904E-13   8   3   8   2
  0.1040920295705374E+00   8   3   8   3
  0.2490323735388390E-01   8   4   1   1
 -0.4397430499163829E-13   8   4   2   1
  0.1190580682040861E-01   8   4   2   2
  0.2619697922240620E-01   8   4   3   1
  0.5364523929241027E-13   8   4   3   2
  0.5394530417752219E-02   8   4   3   3
 -0.6908009185184227E-02   8   4   4   1
  0.2891220249323645E-13   8   4   4   2
  0.3309214825456659E-02   8   4   4   3
  0.2152116870003972E-01   8   4   4   4
  0.4494104741126215E-13   8   4   5   1
  0.1829090732004920E-02   8   4   5   2
 -0.3622362826360970E-13   8   4   5   3
 -0.5459174778899012E-13   8   4   5   4
  0.1284734315318290E-01   8   4   5   5
 -0.4572080561371372E-15   8   4   6   1
 -0.1271711099815154E-01   8   4   6   2
  0.5121548801376163E-13   8   4   6   3
 -0.9027500968983304E-14   8   4   6   4
 -0.5296267314829274E-02   8   4   6   5
  0.8401496553496838E-02   8   4   6   6
  0.8970437618269994E-02   8   4   7   1
  0.5790826802451465E-13   8   4   7   2
  0.8028739841470883E-02   8   4   7   3
 -0.5069843021980523E-02   8   4   7   4
  0.4535174319419966E-13   8   4   7   5
 -0.1540174238146008E-13   8   4   7   6
  0.1581643230821948E-01   8   4   7   7
  0.9194685113118333E-02   8   4   8   1
  0.7416723485365040E-13   8   4   8   2
 -0.4039791906761302E-02   8   4   8   3
  0.2382765736503369E-01   8   4   8   4
 -0.8791389394175207E-13   8   5   1   1
 -0.3333996736086429E-02   8   5   2   1
 -0.2332816391135113E-13   8   5   2   2
 -0.2382359649724490E-12   8   5   3   1
  0.6154553085670330E-02   8   5   3   2
  0.1246129894538734E-12   8   5   3   3
  0.3557443510777969E-13   8   5   4   1
 -0.1009410908504827E-02   8   5   4   2
 -0.4894339328351954E-13   8   5   4   3
 -0.1212674724744682E-12   8   5   4   4
  0.1797483278204283E-02   8   5   5   1
 -0.5659386262575616E-13   8   5   5   2
 -0.2668135822912294E-02   8   5   5   3
  0.3264227713025555E-03   8   5   5   4
 -0.6224402772330020E-13   8   5   5   5
 -0.2572866459192384E-02   8   5   6   1
  0.1321189793852817E-12   8   5   6   2
  0.2743611287129273E-02   8   5   6   3
 -0.1373332866697326E-02   8   5   6   4
  0.2919962448916236E-13   8   5   6   5
 -0.6304062677756948E-13   8   5   6   6
 -0.3760812733281937E-13   8   5   7   1
  0.4687758277724960E-02   8   5   7   2
 -0.2052131793488232E-13   8   5   7   3
  0.3252338177418823E-13   8   5   7   4
  0.6711159637554530E-03   8   5   7   5
 -0.1852629750429281E-02   8   5   7   6
 -0.8814676944588119E-13   8   5   7   7
 -0.2139161040686823E-13   8   5   8   1
  0.6003341314055298E-03   8   5   8   2
 -0.5580848690079840E-13   8   5   8   3
 -0.9370360932493826E-13   8   5   8   4
  0.6129342979501540E-02   8   5   8   5
 -0.7924184023502491E-13   8   6   1   1
  0.7310216572418739E-02   8   6   2   1
 -0.5947863407132375E-13   8   6   2   2
  0.9569105355105786E-13   8   6   3   1
  0.2507963206506496E-02   8   6   3   2
 -0.1733546156454548E-12   8   6   3   3
  0.1809546978405463E-13   8   6   4   1
 -0.1883320407447350E-02   8   6   4   2
  0.4439774015010250E-13   8   6   4   3
  0.3917376505139631E-14   8   6   4   4
 -0.9125763360334427E-03   8   6   5   1
  0.7592651550883400E-13   8   6   5   2
  0.1086530555112424E-02   8   6   5   3
 -0.2754169806681463E-02   8   6   5   4
  0.3983502808270817E-13   8   6   5   5
 -0.6313195520947772E-02   8   6   6   1
 -0.1158215504840771E-12   8   6   6   2
 -0.1765714544707813E-02   8   6   6   3
 -0.7210953129629260E-02   8   6   6   4
  0.1805283353362164E-13   8   6   6   5
  0.4248158903828302E-13   8   6   6   6
 -0.5741216421543960E-14   8   6   7   1
 -0.9763160844784213E-02   8   6   7   2
 -0.1304306055521787E-13   8   6   7   3
 -0.3102509568697620E-13   8   6   7   4
 -0.5307722440162206E-02   8   6   7   5
  0.8314383402933299E-02   8   6   7   6
 -0.3142921118957869E-13   8   6   7   7
  0.4256221636527065E-13   8   6   8   1
 -0.3768382625643809E-03   8   6   8   2
  0.1053587437156419E-13   8   6   8   3
  0.1650914648043678E-13   8   6   8   4
 -0.4987295701385380E-02   8   6   8   5
  0.1485628290805755E-01   8   6   8   6
 -0.2009523758711205E-01   8   7   1   1
 -0.1059548499285357E-12   8   7   2   1
 -0.4785974879221969E-02   8   7   2   2
  0.2513697484286265E-01   8   7   3   1
  0.2169098234361400E-13   8   7   3   2
 -0.5774902719098437E-01   8   7   3   3
  0.1526653636126427E-01   8   7   4   1
  0.1588331517091840E-12   8   7   4   2
  0.1437435655375886E-01   8   7   4   3
  0.9993005034745796E-02   8   7   4   4
 -0.1143599104302950E-12   8   7   5   1
  0.2441589919702390E-01   8   7   5   2
 -0.6197332143992318E-13   8   7   5   3
 -0.5230364752417671E-13   8   7   5   4
  0.8617283936021552E-02   8   7   5   5
 -0.2046756861218135E-14   8   7   6   1
 -0.3136066227537015E-01   8   7   6   2
  0.3860843936220881E-13   8   7   6   3
  0.1033786771464928E-14   8   7   6   4
 -0.1007397622793393E-02   8   7   6   5
  0.1954072049022642E-01   8   7   6   6
 -0.2169743566399346E-01   8   7   7   1
  0.1925321881091069E-12   8   7   7   2
 -0.2452529578451060E-01   8   7   7   3
 -0.5506328473277752E-02   8   7   7   4
  0.5376298364834220E-13   8   7   7   5
 -0.5281582463045886E-13   8   7   7   6
  0.2572367494630671E-01   8   7   7   7
 -0.6812336037871807E-02   8   7   8   1
  0.4007037757158827E-13   8   7   8   2
  0.2289917527064210E-01   8   7   8   3
  0.1202448271157527E-02   8   7   8   4
 -0.2222267508900089E-13   8   7   8   5
  0.3349100510807723E-13   8   7   8   6
  0.3066806503322815E-01   8   7   8   7
  0.5454859808066791E+00   8   8   1   1
  0.1696620274826977E-12   8   8   2   1
  0.5221040981264704E+00   8   8   2   2
 -0.2846270854794448E-01   8   8   3   1
 -0.9253719752272405E-13   8   8   3   2
  0.5893220325500770E+00   8   8   3   3
 -0.4468841813756762E-01   8   8   4   1
 -0.4193173586131138E-12   8   8   4   2
 -0.2685608627400832E-01   8   8   4   3
  0.3312925678506106E+00   8   8   4   4
  0.4191369473716122E-12   8   8   5   1
 -0.6648841886825413E-01   8   8   5   2
 -0.1195571419643215E-13   8   8   5   3
  0.1132982596629972E-12   8   8   5   4
  0.3256673026396559E+00   8   8   5   5
  0.2702005286181475E-13   8   8   6   1
  0.1908163586112746E-01   8   8   6   2
 -0.1655290488011829E-12   8   8   6   3
 -0.6773609451116158E-12   8   8   6   4
 -0.8599565314197943E-01   8   8   6   5
  0.4022736412085632E+00   8   8   6   6
  0.1901435554056567E-01   8   8   7   1
 -0.2615303806852154E-12   8   8   7   2
  0.4490360164561232E-01   8   8   7   3
 -0.6924567957943017E-01   8   8   7   4
  0.6481482017761664E-12   8   8   7   5
  0.3043572338601308E-14   8   8   7   6
  0.4071825833139650E+00   8   8   7   7
  0.1525892914597975E-01   8   8   8   1
 -0.5224379956425551E-13   8   8   8   2
 -0.7808015229676910E-01   8   8   8   3
  0.4676559871507419E-02   8   8   8   4
  0.2645106356169435E-13   8   8   8   5
 -0.1541822225448186E-12   8   8   8   6
 -0.2455935269599624E-01   8   8   8   7
  0.4909631599044885E+00   8   8   8   8
 -0.2411669748563439E-12   9   1   1   1
 -0.3638544372901358E-01   9   1   2   1
 -0.2203071275665978E-12   9   1   2   2
 -0.5608177699903232E-13   9   1   3   1
 -0.2307602840758823E-02   9   1   3   2
 -0.1874934986082498E-12   9   1   3   3
  0.1830848840589372E-12   9   1   4   1
  0.1680206842402368E-01   9   1   4   2
  0.4004668775411946E-13   9   1   4   3
 -0.7895988669744498E-13   9   1   4   4
  0.1666350380792906E-01   9   1   5   1
 -0.5168142389738728E-13   9   1   5   2
 -0.1798434715584129E-02   9   1   5   3
  0.1036775053161567E-02   9   1   5   4
 -0.3779849244239055E-13   9   1   5   5
 -0.1990852795096164E-02   9   1   6   1
 -0.6739725964821641E-14   9   1   6   2
  0.6272792213444801E-02   9   1   6   3
  0.5234342377883282E-02   9   1   6   4
 -0.7827289164041851E-14   9   1   6   5
 -0.7573953566116431E-13   9   1   6   6
 -0.3900720892124898E-13   9   1   7   1
 -0.7087629719460932E-02   9   1   7   2
 -0.7832092179665961E-13   9   1   7   3
  0.4597925230657995E-13   9   1   7   4
  0.1303463899159000E-02   9   1   7   5
  0.2963718089742582E-02   9   1   7   6
 -0.1183914387554234E-12   9   1   7   7
 -0.7035238819459722E-14   9   1   8   1
 -0.2329921137221372E-02   9   1   8   2
  0.2380400428636173E-13   9   1   8   3
 -0.1376936759056591E-14   9   1   8   4
  0.1062819187208630E-04   9   1   8   5
 -0.7383109982682576E-02   9   1   8   6
  0.3582344924174530E-13   9   1   8   7
 -0.6806378582592874E-13   9   1   8   8
  0.3070361583064083E-01   9   1   9   1
 -0.1433542671163179E+00   9   2   1   1
 -0.5136863157062521E-13   9   2   2   1
 -0.1248173770529698E+00   9   2   2   2
 -0.6181527240065577E-02   9   2   3   1
  0.1833515977933686E-13   9   2   3   2
 -0.1249006190944216E+00   9   2   3   3
  0.4699979472728701E-01   9   2   4   1
  0.4006465298411754E-12   9   2   4   2
  0.1808925633536030E-01   9   2   4   3
 -0.2579678248271463E-01   9   2   4   4
 -0.3133656528708784E-12   9   2   5   1
  0.5378376299780391E-01   9   2   5   2
 -0.2240915786266839E-13   9   2   5   3
 -0.1809316585443810E-13   9   2   5   4
 -0.2960320931563467E-01   9   2   5   5
 -0.3192541717100816E-13   9   2   6   1
 -0.1914746130255260E-01   9   2   6   2
 -0.9989405136412444E-14   9   2   6   3
  0.1780190578282159E-12   9   2   6   4
  0.2564074428098674E-01   9   2   6   5
 -0.3336729552395441E-01   9   2   6   6
 -0.3417891515742583E-01   9   2   7   1
  0.1193966800427937E-12   9   2   7   2
 -0.3926084742951775E-01   9   2   7   3