 &FCI NORB= 18,NELEC=  9,MS2= 1,
  ORBSYM=1,1,1,1,1,1,1,1,1,2,2,2,2,3,3,3,3,4,
  ISYM=1,
  IUHF=1,
  OCC=  3,  1,  1,  0,  0,  0,  0,  0,
  CLOSED=  2,  1,  1,  0,  0,  0,  0,  0,
 /
  0.7639919131500037E+00   1   1   1   1
  0.2733091125277393E-02   2   1   1   1
  0.1641636950530026E+00   2   1   2   1
  0.7056328497477153E+00   2   2   1   1
 -0.2592029500707268E-01   2   2   2   1
  0.7162118973899227E+00   2   2   2   2
 -0.9605002605579395E-01   3   1   1   1
 -0.2393054642840270E-01   3   1   2   1
 -0.6061704918907292E-01   3   1   2   2
  0.3559421600866403E-01   3   1   3   1
 -0.8311915101374544E-01   3   2   1   1
  0.2266736034629938E-01   3   2   2   1
 -0.7056724200561020E-01   3   2   2   2
  0.2510585983781268E-01   3   2   3   1
  0.3860024258476950E-01   3   2   3   2
  0.3789144918208195E+00   3   3   1   1
  0.5194007107280251E-01   3   3   2   1
  0.3736114912767814E+00   3   3   2   2
 -0.1528852331668487E-01   3   3   3   1
  0.1265938097723557E-01   3   3   3   2
  0.3598743956015406E+00   3   3   3   3
  0.3887192850778479E-01   4   1   1   1
  0.8294136422683906E-02   4   1   2   1
 -0.1454293154512202E-01   4   1   2   2
 -0.3099972957508837E-01   4   1   3   1
 -0.2137670050426517E-01   4   1   3   2
 -0.4575126565705206E-02   4   1   3   3
  0.5399842627126477E-01   4   1   4   1
  0.6113817563432970E-01   4   2   1   1
 -0.9367626002236984E-01   4   2   2   1
  0.4650680094341894E-01   4   2   2   2
 -0.2039474118073923E-01   4   2   3   1
 -0.5090523302958266E-01   4   2   3   2
 -0.3202555770527483E-01   4   2   3   3
  0.4214700718664813E-01   4   2   4   1
  0.1214744230610782E+00   4   2   4   2
 -0.1234045133124474E+00   4   3   1   1
 -0.1955890700199683E-01   4   3   2   1
 -0.1209215167044527E+00   4   3   2   2
  0.1901395214000591E-01   4   3   3   1
  0.1125576510212128E-01   4   3   3   2
 -0.4402261718529219E-01   4   3   3   3
  0.5380838446794326E-02   4   3   4   1
  0.1301335982012451E-01   4   3   4   2
  0.4981468094869351E-01   4   3   4   3
  0.5440317400259940E+00   4   4   1   1
  0.9748675160308577E-01   4   4   2   1
  0.5612558911902807E+00   4   4   2   2
 -0.2878238482798512E-01   4   4   3   1
  0.8009129447608010E-02   4   4   3   2
  0.4056740554565300E+00   4   4   3   3
 -0.5167446901056080E-01   4   4   4   1
 -0.1048516647624010E+00   4   4   4   2
 -0.1206440959584991E+00   4   4   4   3
  0.6459637931204454E+00   4   4   4   4
  0.2482251062359580E-01   5   1   1   1
 -0.4248829215369433E-01   5   1   2   1
  0.2630491222620231E-01   5   1   2   2
  0.4957773911660937E-02   5   1   3   1
  0.3629640668147849E-02   5   1   3   2
  0.5157049831584599E-02   5   1   3   3
 -0.2554483524937916E-02   5   1   4   1
  0.1861931954602366E-01   5   1   4   2
  0.7885772636699179E-03   5   1   4   3
  0.1760338876290982E-02   5   1   4   4
  0.3586060752160215E-01   5   1   5   1
 -0.1536791995626092E+00   5   2   1   1
  0.1975053399254218E-02   5   2   2   1
 -0.1446917904802109E+00   5   2   2   2
  0.3562720736331277E-01   5   2   3   1
  0.2922419173928625E-01   5   2   3   2
 -0.3577772961453295E-01   5   2   3   3
 -0.9413394609135109E-02   5   2   4   1
 -0.2902193786175108E-01   5   2   4   2
  0.3317977435352031E-01   5   2   4   3
 -0.8542659308799043E-01   5   2   4   4
 -0.2452557101675409E-01   5   2   5   1
  0.9573114796791941E-01   5   2   5   2
  0.4975830681131344E-01   5   3   1   1
  0.3290438050970533E-01   5   3   2   1
  0.4255262780543687E-01   5   3   2   2
 -0.1291340404960361E-01   5   3   3   1
  0.2142027367372228E-02   5   3   3   2
  0.3672347635756021E-01   5   3   3   3
  0.4709343868807952E-02   5   3   4   1
 -0.1055036881442636E-01   5   3   4   2
 -0.1543666699942699E-01   5   3   4   3
  0.5579302429568109E-01   5   3   4   4
  0.4937424766002113E-02   5   3   5   1
 -0.3032185976926823E-01   5   3   5   2
  0.2353603536761350E-01   5   3   5   3
 -0.3676033257670843E-01   5   4   1   1
  0.1239659276877358E-01   5   4   2   1
 -0.3517749755300725E-01   5   4   2   2
  0.9655737401073141E-02   5   4   3   1
  0.8467989420575238E-02   5   4   3   2
 -0.1417508694885202E-01   5   4   3   3
 -0.8533629420927480E-02   5   4   4   1
 -0.2338267646226548E-01   5   4   4   2
  0.1113430100288025E-01   5   4   4   3
 -0.9877010619317514E-02   5   4   4   4
 -0.1303873808741328E-01   5   4   5   1
  0.3063735644265203E-01   5   4   5   2
 -0.1193951153121072E-01   5   4   5   3
  0.2218747499155898E-01   5   4   5   4
  0.5460052072551184E+00   5   5   1   1
 -0.7474585345789590E-01   5   5   2   1
  0.5565312610775957E+00   5   5   2   2
 -0.3466405995151180E-01   5   5   3   1
 -0.6899625130086576E-01   5   5   3   2
  0.2970074364765254E+00   5   5   3   3
  0.4340106088872829E-03   5   5   4   1
  0.7685241636514772E-01   5   5   4   2
 -0.7621515254223987E-01   5   5   4   3
  0.3944674816912743E+00   5   5   4   4
  0.8651738153057142E-02   5   5   5   1
 -0.6488287134428264E-01   5   5   5   2
 -0.2218178973357604E-02   5   5   5   3
 -0.1669460003096146E-01   5   5   5   4
  0.5389524635512567E+00   5   5   5   5
 -0.1322990656130015E+00   6   1   1   1
  0.7859344921143338E-02   6   1   2   1
 -0.1215482430925362E+00   6   1   2   2
  0.3559117054479864E-01   6   1   3   1
  0.3328023182336054E-01   6   1   3   2
 -0.2740567412677947E-01   6   1   3   3
 -0.1377272242054971E-01   6   1   4   1
 -0.3832906221344509E-01   6   1   4   2
  0.3239570205906705E-01   6   1   4   3
 -0.5879714248970831E-01   6   1   4   4
 -0.9008565749108528E-02   6   1   5   1
  0.7247898548282503E-01   6   1   5   2
 -0.1902404458038291E-01   6   1   5   3
  0.2684781039806075E-01   6   1   5   4
 -0.7494387333738335E-01   6   1   5   5
  0.7920926956180983E-01   6   1   6   1
  0.1630951724699665E-01   6   2   1   1
 -0.5020333987051469E-01   6   2   2   1
  0.3491451556360769E-01   6   2   2   2
  0.1174136970675155E-01   6   2   3   1
  0.1673272410874001E-02   6   2   3   2
 -0.8133188152157266E-03   6   2   3   3
 -0.1470869837127307E-01   6   2   4   1
  0.2049398175917249E-01   6   2   4   2
 -0.8022431264397278E-03   6   2   4   3
  0.3421267070533390E-02   6   2   4   4
  0.3304873521696818E-01   6   2   5   1
 -0.1908632848754292E-01   6   2   5   2
 -0.2247092131132285E-03   6   2   5   3
 -0.1102473894019256E-01   6   2   5   4
  0.2440516836701409E-01   6   2   5   5
 -0.9009473024350744E-02   6   2   6   1
  0.3821397936646282E-01   6   2   6   2
  0.8931718150208096E-01   6   3   1   1
  0.1276221141530366E-01   6   3   2   1
  0.7152411940067331E-01   6   3   2   2
 -0.2253227177126312E-01   6   3   3   1
 -0.2058855318241205E-01   6   3   3   2
  0.1213580984239899E-01   6   3   3   3
  0.1542663987865673E-01   6   3   4   1
  0.1119710125116134E-01   6   3   4   2
 -0.2423170191067178E-01   6   3   4   3
  0.4496749019422576E-01   6   3   4   4
 -0.6199853953033685E-02   6   3   5   1
 -0.2140982216694259E-01   6   3   5   2
  0.8322923992959436E-02   6   3   5   3
 -0.4789536768315165E-02   6   3   5   4
  0.5549415593898064E-01   6   3   5   5
 -0.2326424036076652E-01   6   3   6   1
 -0.7773993305873930E-02   6   3   6   2
  0.2634377050274753E-01   6   3   6   3
  0.1206355292782166E-01   6   4   1   1
 -0.2814573239619486E-01   6   4   2   1
  0.2178358861925107E-01   6   4   2   2
  0.7520408105327584E-02   6   4   3   1
 -0.4475858359263309E-02   6   4   3   2
 -0.1338945861940442E-01   6   4   3   3
 -0.8537554093283455E-02   6   4   4   1
  0.9644386714336102E-02   6   4   4   2
  0.4336795877460076E-02   6   4   4   3
 -0.3703975185184937E-02   6   4   4   4
  0.1150707038317187E-01   6   4   5   1
 -0.2555571362319608E-02   6   4   5   2
 -0.6835806457829498E-02   6   4   5   3
  0.5822346001344108E-02   6   4   5   4
  0.2316729610186440E-01   6   4   5   5
  0.1086874798902880E-01   6   4   6   1
  0.1384666244963810E-01   6   4   6   2
 -0.8559762121850417E-03   6   4   6   3
  0.2081476261419157E-01   6   4   6   4
 -0.1758281847549759E-01   6   5   1   1
  0.7998865940203817E-01   6   5   2   1
 -0.3740894394637275E-01   6   5   2   2
 -0.9777738659037187E-02   6   5   3   1
  0.1476066094025413E-01   6   5   3   2
  0.2206090117518222E-01   6   5   3   3
  0.1049476971828685E-01   6   5   4   1
 -0.4299204988457596E-01   6   5   4   2
 -0.1842188480751884E-02   6   5   4   3
  0.2887900494532703E-01   6   5   4   4
 -0.2037276433166612E-01   6   5   5   1
  0.1015774088660459E-01   6   5   5   2
  0.1625365441054220E-01   6   5   5   3
  0.8589135363216521E-02   6   5   5   4
 -0.5684466636079501E-01   6   5   5   5
  0.1428186835989732E-01   6   5   6   1
 -0.2696751366580572E-01   6   5   6   2
  0.3541485298325583E-02   6   5   6   3
 -0.1347443842407997E-01   6   5   6   4
  0.4744048723861713E-01   6   5   6   5
  0.6000403252254375E+00   6   6   1   1
 -0.8489905544165177E-02   6   6   2   1
  0.5577842725801970E+00   6   6   2   2
 -0.5974980494683883E-01   6   6   3   1
 -0.5346885889636371E-01   6   6   3   2
  0.3432564472385290E+00   6   6   3   3
  0.3221015024396953E-01   6   6   4   1
  0.4761575998767653E-01   6   6   4   2
 -0.7927552102739743E-01   6   6   4   3
  0.4459870134955560E+00   6   6   4   4
  0.2437108538635471E-01   6   6   5   1
 -0.9920989133215728E-01   6   6   5   2
  0.3504825497629679E-01   6   6   5   3
 -0.2511776180909497E-01   6   6   5   4
  0.4589319479378621E+00   6   6   5   5
 -0.7210013907412427E-01   6   6   6   1
  0.1452241680369515E-01   6   6   6   2
  0.6224819778866697E-01   6   6   6   3
  0.1906084986823420E-01   6   6   6   4
 -0.1200193888243350E-01   6   6   6   5
  0.5167032540308768E+00   6   6   6   6
  0.2284796173426272E-01   7   1   1   1
 -0.2193952318213861E-01   7   1   2   1
 -0.1183561200482477E-01   7   1   2   2
 -0.1445995136428786E-01   7   1   3   1
 -0.6389359362833016E-02   7   1   3   2
  0.2873458817741041E-02   7   1   3   3
  0.3165532316717792E-01   7   1   4   1
  0.2555310874586094E-01   7   1   4   2
 -0.6914903364060268E-02   7   1   4   3
 -0.1702230646005666E-01   7   1   4   4
  0.7413458219026186E-02   7   1   5   1
 -0.4397803399414001E-02   7   1   5   2
  0.5088007430875553E-03   7   1   5   3
 -0.1329370013004338E-01   7   1   5   4
  0.7582230694240668E-02   7   1   5   5
 -0.1607921596701780E-01   7   1   6   1
 -0.3313209186836653E-02   7   1   6   2
  0.8529246873452530E-02   7   1   6   3
 -0.1266492987925331E-01   7   1   6   4
 -0.6026990961702672E-02   7   1   6   5
  0.1989670552991796E-01   7   1   6   6
  0.5106940832570271E-01   7   1   7   1
  0.5585300215487738E-02   7   2   1   1
 -0.6846899398220033E-01   7   2   2   1
  0.2131279617692593E-01   7   2   2   2
  0.6259886019941231E-02   7   2   3   1
 -0.8586298435465149E-02   7   2   3   2
  0.1745123951954618E-02   7   2   3   3
  0.1433274832482559E-02   7   2   4   1
  0.4863401245763298E-01   7   2   4   2
 -0.9012932137605859E-02   7   2   4   3
 -0.1354840010175534E-01   7   2   4   4
  0.2135325923750277E-01   7   2   5   1
 -0.1476360795968193E-01   7   2   5   2
 -0.1441817734346883E-02   7   2   5   3
 -0.2630665712791632E-01   7   2   5   4
  0.3740358918390400E-01   7   2   5   5
 -0.2365396096795230E-01   7   2   6   1
  0.2480352166326089E-01   7   2   6   2
 -0.2699839720073482E-02   7   2   6   3
 -0.2959290815898505E-02   7   2   6   4
 -0.3286543146944264E-01   7   2   6   5
  0.9624169327055600E-02   7   2   6   6
  0.3368347225608000E-01   7   2   7   1
  0.7174692799981001E-01   7   2   7   2
 -0.5056830703952237E-01   7   3   1   1
  0.2979111654351621E-01   7   3   2   1
 -0.3012159388077965E-01   7   3   2   2
  0.2054159693485857E-01   7   3   3   1
  0.3075745679803544E-01   7   3   3   2
  0.2447209946437004E-01   7   3   3   3
 -0.2720595057336496E-01   7   3   4   1
 -0.5239325292714442E-01   7   3   4   2
 -0.5901756561557565E-02   7   3   4   3
  0.3919801252192429E-01   7   3   4   4
 -0.5479890042059609E-02   7   3   5   1
  0.2433401465496581E-01   7   3   5   2
  0.3359167769520062E-02   7   3   5   3
  0.5546983135012340E-02   7   3   5   4
 -0.3770335854779269E-01   7   3   5   5
  0.2547333445619109E-01   7   3   6   1
 -0.3549560767514586E-02   7   3   6   2
 -0.1377538367063585E-01   7   3   6   3
 -0.5232702751366516E-02   7   3   6   4
  0.1384702619970513E-01   7   3   6   5
 -0.3533099352324349E-01   7   3   6   6
 -0.1429821713852551E-01   7   3   7   1
 -0.7430837576922812E-02   7   3   7   2
  0.4420921100072057E-01   7   3   7   3
  0.1366118692944442E+00   7   4   1   1
 -0.2275823769251832E-01   7   4   2   1
  0.1151368088294895E+00   7   4   2   2
 -0.3830849078101695E-01   7   4   3   1
 -0.5191467860056374E-01   7   4   3   2
 -0.1315976598417414E-01   7   4   3   3
  0.2673739250584694E-01   7   4   4   1
  0.6154737354088796E-01   7   4   4   2
 -0.9668621933086374E-02   7   4   4   3
  0.1703872799249800E-02   7   4   4   4
  0.1377595010138517E-02   7   4   5   1
 -0.5733557111094044E-01   7   4   5   2
  0.1478847146080020E-02   7   4   5   3
 -0.4987027458146456E-02   7   4   5   4
  0.9253504154869990E-01   7   4   5   5
 -0.5224491736933520E-01   7   4   6   1
  0.1271097861496845E-02   7   4   6   2
  0.2781248991244292E-01   7   4   6   3
  0.1301737126246287E-01   7   4   6   4
 -0.1749102225096988E-01   7   4   6   5
  0.8811752122337259E-01   7   4   6   6
 -0.7260873564334663E-03   7   4   7   1
 -0.1042905283033253E-01   7   4   7   2
 -0.5806189775946703E-01   7   4   7   3
  0.1082898528340485E+00   7   4   7   4
 -0.3651921552146658E-01   7   5   1   1
  0.3663860613713187E-01   7   5   2   1
 -0.3229942254317229E-01   7   5   2   2
  0.1009672844504923E-01   7   5   3   1
  0.2112209404961167E-01   7   5   3   2
  0.9287655642054164E-02   7   5   3   3
 -0.1706853530670624E-01   7   5   4   1
 -0.4925523983253659E-01   7   5   4   2
 -0.1847302160720848E-03   7   5   4   3
  0.2545999502556897E-01   7   5   4   4
 -0.1416542272155504E-01   7   5   5   1
  0.2566229926053435E-01   7   5   5   2
 -0.1707308435410835E-02   7   5   5   3
  0.1624540707176899E-01   7   5   5   4
 -0.3816124139436954E-01   7   5   5   5
  0.2254061006186691E-01   7   5   6   1
 -0.1449020430107326E-01   7   5   6   2
 -0.7781486433483864E-02   7   5   6   3
 -0.4186789145419530E-02   7   5   6   4
  0.1851713115362767E-01   7   5   6   5
 -0.3192356436252507E-01   7   5   6   6
 -0.1464741694910575E-01   7   5   7   1
 -0.2780936163580641E-01   7   5   7   2
  0.2838045711256324E-01   7   5   7   3
 -0.3178936406529972E-01   7   5   7   4
  0.3133013185226567E-01   7   5   7   5
 -0.3599365761014946E-01   7   6   1   1
 -0.1616343726678279E-01   7   6   2   1
 -0.8776128901670600E-02   7   6   2   2
  0.1811246392780862E-01   7   6   3   1
  0.8809420318907652E-02   7   6   3   2
 -0.8908326395921963E-02   7   6   3   3
 -0.2497814231136549E-01   7   6   4   1
 -0.1252312734334039E-01   7   6   4   2
  0.5641504459606859E-02   7   6   4   3
 -0.5683276394899873E-03   7   6   4   4
  0.2845342432081194E-02   7   6   5   1
  0.7479287213291736E-02   7   6   5   2
 -0.6752154825360426E-02   7   6   5   3
  0.4432557917523227E-02   7   6   5   4
 -0.7744362421632828E-02   7   6   5   5
  0.1425962350750077E-01   7   6   6   1
  0.7281070731355761E-02   7   6   6   2
 -0.1247246460935315E-01   7   6   6   3
  0.9785002340639086E-02   7   6   6   4
 -0.1055088404993644E-01   7   6   6   5
 -0.2456342917580308E-01   7   6   6   6
 -0.1800457013449542E-01   7   6   7   1
  0.3772803142565728E-03   7   6   7   2
  0.1543594383091215E-01   7   6   7   3
 -0.1686000870110657E-01   7   6   7   4
  0.9910933324024150E-02   7   6   7   5
  0.2176255478867998E-01   7   6   7   6
  0.6377891721017434E+00   7   7   1   1
  0.1029608728794731E+00   7   7   2   1
  0.6277670847244813E+00   7   7   2   2
 -0.5770244957315129E-01   7   7   3   1
 -0.1524992270780384E-01   7   7   3   2
  0.4344164261944917E+00   7   7   3   3
 -0.1927509287455004E-01   7   7   4   1
 -0.6378321326767011E-01   7   7   4   2
 -0.1363507547274192E+00   7   7   4   3
  0.6440876031802181E+00   7   7   4   4
  0.5721610593369564E-02   7   7   5   1
 -0.1182824837826568E+00   7   7   5   2
  0.7072280309855378E-01   7   7   5   3
 -0.3073322897611630E-01   7   7   5   4
  0.4427116056188474E+00   7   7   5   5
 -0.9250502611604028E-01   7   7   6   1
  0.3050847855077254E-02   7   7   6   2
  0.6280807203526451E-01   7   7   6   3
 -0.1111107772520925E-01   7   7   6   4
  0.2924256761623922E-01   7   7   6   5
  0.5092731711678491E+00   7   7   6   6
 -0.8236254398921394E-02   7   7   7   1
 -0.1071984941154541E-01   7   7   7   2
  0.3320650325039898E-01   7   7   7   3
  0.2582601323188566E-01   7   7   7   4
  0.1499590695158992E-01   7   7   7   5
 -0.1471464971643988E-01   7   7   7   6
  0.7280300555921366E+00   7   7   7   7
  0.7507974312765011E-16   8   1   1   1
  0.5055305758056463E-17   8   1   2   1
 -0.3898553432465410E-16   8   1   2   2
 -0.4168394450225272E-16   8   1   3   1
 -0.4723819988583964E-17   8   1   3   2
  0.1599945886088455E-16   8   1   3   3
  0.7216720112076504E-16   8   1   4   1
  0.1646393394518676E-16   8   1   4   2
 -0.1141357948153250E-16   8   1   4   3
 -0.1375838468014208E-16   8   1   4   4
  0.2299894247855509E-16   8   1   5   1
 -0.8140599161605218E-17   8   1   5   2
  0.6567912072818195E-18   8   1   5   3
 -0.9583003329573229E-17   8   1   5   4
  0.3373661638587997E-17   8   1   5   5
 -0.1214231490142869E-16   8   1   6   1
 -0.2340169428491399E-16   8   1   6   2
  0.2032961807800975E-16   8   1   6   3
 -0.2454964361219861E-16   8   1   6   4
  0.1097698589410954E-16   8   1   6   5
  0.6040889488394824E-16   8   1   6   6
  0.2254920281394931E-16   8   1   7   1
  0.4611290423451216E-16   8   1   7   2
 -0.1076300607583808E-16   8   1   7   3
 -0.2061543290539342E-16   8   1   7   4
 -0.2834572886697596E-16   8   1   7   5
 -0.5190016157990290E-16   8   1   7   6
 -0.5422988853082241E-16   8   1   7   7
  0.6681037819415807E-01   8   1   8   1
  0.1952168030594041E-15   8   2   1   1
 -0.2150441676140045E-15   8   2   2   1
  0.2676651720835751E-15   8   2   2   2
  0.1071529300530201E-16   8   2   3   1
 -0.5296634795152508E-16   8   2   3   2
  0.5706763586837401E-16   8   2   3   3
 -0.2336188873331863E-16   8   2   4   1
  0.1484563670892003E-15   8   2   4   2
 -0.3584687920819192E-16   8   2   4   3
  0.8013552978972951E-16   8   2   4   4
  0.6202212639846153E-16   8   2   5   1
 -0.7211955098039156E-16   8   2   5   2
 -0.9475105452175495E-17   8   2   5   3
 -0.5328022274737354E-16   8   2   5   4
  0.2457514662338211E-15   8   2   5   5
 -0.8286600409660052E-16   8   2   6   1
  0.9013712696051064E-16   8   2   6   2
  0.3716422915926856E-17   8   2   6   3
  0.2854393815790024E-16   8   2   6   4
 -0.1125292046493184E-15   8   2   6   5
  0.1582749558694310E-15   8   2   6   6
  0.5743616788914436E-16   8   2   7   1
  0.1330529560838343E-15   8   2   7   2
 -0.4492080149892811E-16   8   2   7   3
  0.5379462732509866E-16   8   2   7   4
 -0.7094225782355422E-16   8   2   7   5
  0.1549535815680194E-16   8   2   7   6
  0.1038053262903237E-15   8   2   7   7
 -0.1749228802537653E-01   8   2   8   1
  0.1792471927197994E-01   8   2   8   2
 -0.1481100979108398E-15   8   3   1   1
  0.6554273670796233E-16   8   3   2   1
 -0.1200126494750114E-15   8   3   2   2
  0.3316501775298582E-16   8   3   3   1
  0.5040758322129353E-16   8   3   3   2
  0.1597305723511173E-16   8   3   3   3
 -0.3279730260870179E-16   8   3   4   1
 -0.8506414630512650E-16   8   3   4   2
  0.1697727114399458E-16   8   3   4   3
  0.1509987316530408E-17   8   3   4   4
 -0.2643558910195922E-16   8   3   5   1
  0.5397216248238900E-16   8   3   5   2
 -0.7924852845793188E-18   8   3   5   3
  0.1629663238835147E-16   8   3   5   4
 -0.1065236909860257E-15   8   3   5   5
  0.4982822560676606E-16   8   3   6   1
 -0.2252077101651163E-16   8   3   6   2
 -0.3082442756858028E-16   8   3   6   3
 -0.1556051009621067E-16   8   3   6   4
  0.3335788277216498E-16   8   3   6   5
 -0.1048288017146379E-15   8   3   6   6
 -0.1055468229175905E-16   8   3   7   1
 -0.3105484652353374E-16   8   3   7   2
  0.5589512612153200E-16   8   3   7   3
 -0.7822096906087573E-16   8   3   7   4
  0.4897405784028038E-16   8   3   7   5
  0.2139664989566429E-16   8   3   7   6
 -0.5955370154491113E-17   8   3   7   7
 -0.1493757967544233E-01   8   3   8   1
 -0.4243157591855675E-03   8   3   8   2
  0.5084108464335029E-02   8   3   8   3
  0.3796262988873940E-15   8   4   1   1
 -0.8992164931881468E-16   8   4   2   1
  0.3700458905085608E-15   8   4   2   2
 -0.5318164724736362E-16   8   4   3   1
 -0.8474970221553424E-16   8   4   3   2
  0.1106690370220534E-15   8   4   3   3
  0.2265654385009835E-16   8   4   4   1
  0.1253567410731313E-15   8   4   4   2
 -0.4451609273404216E-16   8   4   4   3
  0.1538054204886337E-15   8   4   4   4
  0.3237070704549831E-16   8   4   5   1
 -0.1117855076943424E-15   8   4   5   2
  0.8796115816024097E-17   8   4   5   3
 -0.3079837014439515E-16   8   4   5   4
  0.3036963875802006E-15   8   4   5   5
 -0.1039546426106328E-15   8   4   6   1
  0.3605462192217918E-16   8   4   6   2
  0.4298877916045365E-16   8   4   6   3
  0.2316751040957352E-16   8   4   6   4
 -0.5679136337428289E-16   8   4   6   5
  0.2814230650081500E-15   8   4   6   6
 -0.1624873830196245E-16   8   4   7   1
  0.3886341704717933E-16   8   4   7   2
 -0.6927928980625462E-16   8   4   7   3
  0.1364040774747756E-15   8   4   7   4
 -0.6298387902886135E-16   8   4   7   5
 -0.2034424615361626E-16   8   4   7   6
  0.1938263932043394E-15   8   4   7   7
  0.2093691594743937E-01   8   4   8   1
  0.5945570431786736E-03   8   4   8   2
 -0.6854908229964461E-02   8   4   8   3
  0.1031068267123522E-01   8   4   8   4
 -0.4962069971799019E-16   8   5   1   1
  0.7990710292690944E-16   8   5   2   1
 -0.8954753202027070E-16   8   5   2   2
 -0.1003814219580596E-16   8   5   3   1
  0.2218685162411707E-16   8   5   3   2
 -0.1994201457593499E-16   8   5   3   3
  0.6706172856913532E-17   8   5   4   1
 -0.6662838709898673E-16   8   5   4   2
 -0.9066652212724410E-19   8   5   4   3
 -0.9591032003297914E-17   8   5   4   4
 -0.2565503474370408E-16   8   5   5   1
  0.3187630139180374E-16   8   5   5   2
  0.4525415517951787E-17   8   5   5   3
  0.2645565338591328E-16   8   5   5   4
 -0.1141725506717234E-15   8   5   5   5
  0.2885663251931152E-16   8   5   6   1
 -0.4300720360211408E-16   8   5   6   2
 -0.7562912096477814E-19   8   5   6   3
 -0.1586441835823556E-16   8   5   6   4
  0.4660072780720338E-16   8   5   6   5
 -0.6108960581975317E-16   8   5   6   6
 -0.2060878739118009E-16   8   5   7   1
 -0.5322641345976717E-16   8   5   7   2
  0.3186394753201531E-16   8   5   7   3
 -0.3539097627067145E-16   8   5   7   4
  0.4348792481794650E-16   8   5   7   5
 -0.2223967783971082E-17   8   5   7   6
 -0.2287266165057618E-16   8   5   7   7
  0.1430105129667882E-01   8   5   8   1
 -0.5903757681873633E-02   8   5   8   2
 -0.2643770546966649E-02   8   5   8   3
  0.3611180489493296E-02   8   5   8   4
  0.6048604451381706E-02   8   5   8   5
  0.4959798204210679E-16   8   6   1   1
 -0.7141955513017947E-16   8   6   2   1
  0.9776046223333199E-16   8   6   2   2
  0.1230150289919707E-16   8   6   3   1
 -0.2142602718503027E-16   8   6   3   2
 -0.1358009886783443E-16   8   6   3   3
 -0.3466727044900841E-16   8   6   4   1
  0.3427447672248341E-16   8   6   4   2
 -0.9973394498229599E-17   8   6   4   3
  0.1795031287470285E-16   8   6   4   4
  0.1690640603862586E-16   8   6   5   1
 -0.2861388304421950E-16   8   6   5   2
 -0.9858725247607950E-17   8   6   5   3
 -0.7187313438906067E-17   8   6   5   4
  0.7589015384007236E-16   8   6   5   5
 -0.9598183493992405E-17   8   6   6   1
  0.2781530303411391E-16   8   6   6   2
 -0.3455152572071992E-17   8   6   6   3
  0.2788701713322063E-16   8   6   6   4
 -0.4133632916699766E-16   8   6   6   5
  0.3692198658942041E-16   8   6   6   6
 -0.3719783845945188E-16   8   6   7   1
  0.2249820400292500E-16   8   6   7   2
  0.1796416602412409E-18   8   6   7   3
  0.1608798758740358E-16   8   6   7   4
 -0.7581887297166738E-17   8   6   7   5
  0.1599658862960401E-16   8   6   7   6
  0.1426559980689426E-16   8   6   7   7
  0.6085085915589414E-02   8   6   8   1
 -0.9590212936363143E-03   8   6   8   2
  0.7894098704209346E-05   8   6   8   3
  0.3688896726246416E-02   8   6   8   4
 -0.1001236957371872E-03   8   6   8   5
  0.1706013014338481E-01   8   6   8   6
  0.2016473987631429E-15   8   7   1   1
  0.1215369646173883E-15   8   7   2   1
  0.2733867934369966E-15   8   7   2   2
 -0.8659082458045080E-17   8   7   3   1
  0.8310827544387753E-17   8   7   3   2
  0.1987011333748757E-15   8   7   3   3
 -0.6906327630340865E-16   8   7   4   1
 -0.7557196534583729E-16   8   7   4   2
 -0.7671990828118914E-16   8   7   4   3
  0.3369501607850580E-15   8   7   4   4
 -0.1576588150822669E-16   8   7   5   1
 -0.7692842464876440E-16   8   7   5   2
  0.5691220290407855E-16   8   7   5   3
 -0.2535844594555976E-16   8   7   5   4
  0.1482003857620120E-15   8   7   5   5
 -0.6864906046686054E-16   8   7   6   1
  0.3642521114967312E-17   8   7   6   2
  0.1955160512207455E-16   8   7   6   3
 -0.2218370188044375E-16   8   7   6   4
  0.3536979437646090E-16   8   7   6   5
  0.1423315034607420E-15   8   7   6   6
 -0.9569882377818746E-16   8   7   7   1
  0.5599258079600703E-17   8   7   7   2
  0.5947967174524884E-16   8   7   7   3
 -0.2658858083771924E-16   8   7   7   4
  0.1317666387350740E-16   8   7   7   5
  0.8217566871472123E-17   8   7   7   6
  0.3488455273667512E-15   8   7   7   7
  0.2533059867911191E-01   8   7   8   1
 -0.6780231831570522E-02   8   7   8   2
 -0.6548814948366581E-02   8   7   8   3
  0.9564576613197078E-02   8   7   8   4
  0.5336165047924874E-02   8   7   8   5
  0.6558885472469356E-03   8   7   8   6
  0.1420581755452219E-01   8   7   8   7
  0.7435981279264534E+00   8   8   1   1
 -0.5386886335303338E-01   8   8   2   1
  0.6559938263755358E+00   8   8   2   2
 -0.8872627471662377E-01   8   8   3   1
 -0.7886102276423565E-01   8   8   3   2
  0.3504456761059090E+00   8   8   3   3
  0.5906050539847540E-01   8   8   4   1
  0.8204785609054735E-01   8   8   4   2
 -0.1040180139598493E+00   8   8   4   3
  0.4771548651322398E+00   8   8   4   4
  0.4416643912386184E-01   8   8   5   1
 -0.1262748367582337E+00   8   8   5   2
  0.2982064637986745E-01   8   8   5   3
 -0.2816851602097492E-01   8   8   5   4
  0.5327267503330325E+00   8   8   5   5
 -0.9772893251708825E-01   8   8   6   1
  0.2329825681642195E-01   8   8   6   2
  0.7973547331108666E-01   8   8   6   3
  0.2618680689019248E-01   8   8   6   4
 -0.3479707930140741E-01   8   8   6   5
  0.5980843654452331E+00   8   8   6   6
  0.5303037279601081E-01   8   8   7   1
  0.1276377936988018E-01   8   8   7   2
 -0.5996273229356930E-01   8   8   7   3
  0.1302798443338664E+00   8   8   7   4
 -0.3844045438436355E-01   8   8   7   5
 -0.3384754083656905E-01   8   8   7   6
  0.5632846082475642E+00   8   8   7   7
  0.3421111241021951E-15   8   8   8   1
  0.1586004740181402E-15   8   8   8   2
 -0.2141434625629699E-15   8   8   8   3
  0.4354937344202114E-15   8   8   8   4
  0.1435911508592309E-16   8   8   8   5
  0.7118416671491201E-16   8   8   8   6
  0.9612370498218673E-16   8   8   8   7
  0.8371637976846554E+00   8   8   8   8
  0.1202896611328402E-01   9   1   1   1
  0.4168053745769409E-02   9   1   2   1
  0.3117782207737178E-01   9   1   2   2
 -0.6649603530998310E-02   9   1   3   1
 -0.1937241460358670E-01   9   1   3   2
  0.5424777309854414E-02   9   1   3   3
  0.1692062702639548E-02   9   1   4   1
  0.3114964733345050E-01   9   1   4   2
 -0.5206811237844075E-02   9   1   4   3
 -0.5068176556319263E-02   9   1   4   4
 -0.1528254411933774E-01   9   1   5   1
 -0.1003085639430729E-01   9   1   5   2
  0.6667524260199914E-02   9   1   5   3
 -0.1125675481283661E-01   9   1   5   4
  0.2279762658857189E-01   9   1   5   5
 -0.1918227284467924E-01   9   1   6   1
 -0.6275616189266836E-02   9   1   6   2
  0.7528349230897480E-02   9   1   6   3
 -0.5816736910569210E-02   9   1   6   4
  0.2615598500167183E-02   9   1   6   5
  0.6145232013930905E-02   9   1   6   6
 -0.1215112562672381E-01   9   1   7   1
  0.1678461448924336E-01   9   1   7   2
 -0.3798017107787646E-02   9   1   7   3
  0.8717827916245771E-02   9   1   7   4
 -0.1045646347527408E-01   9   1   7   5
  0.2596587955870019E-03   9   1   7   6
  0.9635757675398282E-02   9   1   7   7
  0.3093345873347334E-16   9   1   8   1
  0.2755302485112282E-16   9   1   8   2
 -0.2594966381646486E-16   9   1   8   3
  0.6299134788559833E-16   9   1   8   4
 -0.4168562914161032E-17   9   1   8   5
  0.3067189717267676E-16   9   1   8   6
  0.1072530478329836E-15   9   1   8   7
 -0.3111761184349084E-01   9   1   8   8
  0.5414151313502218E-01   9   1   9   1
  0.3812411727746292E-01   9   2   1   1
  0.5423659620207075E-01   9   2   2   1
 -0.1625202231430598E-01   9   2   2   2
 -0.3454348856115375E-01   9   2   3   1
 -0.8459178003799708E-02   9   2   3   2
  0.1840226641737667E-01   9   2   3   3
  0.4810771834483735E-01   9   2   4   1
  0.2097061100224173E-02   9   2   4   2
 -0.7042501418471543E-02   9   2   4   3
 -0.7775327680688730E-02   9   2   4   4
 -0.1092552365688142E-01   9   2   5   1
 -0.1840154064605282E-01   9   2   5   2
  0.1808922640988129E-01   9   2   5   3
 -0.1257472237193715E-01   9   2   5   4
 -0.1560834518002890E-01   9   2   5   5
 -0.1937571925544370E-01   9   2   6   1
 -0.2782815558887696E-01   9   2   6   2
  0.1871979258221664E-01   9   2   6   3
 -0.2201370439565814E-01   9   2   6   4
  0.2866539600585329E-01   9   2   6   5
  0.2731871367835349E-01   9   2   6   6
  0.2999322351696928E-01   9   2   7   1
 -0.1284719455225787E-01   9   2   7   2
 -0.6082193990163635E-02   9   2   7   3