&FCI NORB=  3,NELEC= 4,MS2=0,
 ORBSYM=1,1,1,
 ISYM=1,
 III=5,
 OCC=2,0,
 CLOSED=2,0,
/
 -1.853395000000000e-04   2   2   1   3   1   1
  3.706790000000000e-04   1   1   1   3   2   1
 -1.853395000000000e-04   2   1   2   3   1   1
 -7.413580000000000e-04   1   2   2   3   1   1
 -1.853395000000000e-04   2   2   2   3   2   1
  3.706790000000000e-04   1   1   1   3   1   2
  3.706790000000000e-04   2   1   1   3   2   2
  3.706790000000000e-04   1   2   1   3   2   2
 -1.853395000000000e-04   2   2   2   3   1   2
  3.706790000000000e-04   1   1   2   3   2   2
